
     Program PWSCF v.6.1 (svn rev. 13369) starts on 25Jun2018 at 10:21:54 

     This program is part of the open-source Quantum ESPRESSO suite
     for quantum simulation of materials; please cite
         "P. Giannozzi et al., J. Phys.:Condens. Matter 21 395502 (2009);
          URL http://www.quantum-espresso.org", 
     in publications or presentations arising from this work. More details at
     http://www.quantum-espresso.org/quote

     Parallel version (MPI), running on     4 processors
     R & G space division:  proc/nbgrp/npool/nimage =       4
     Waiting for input...
     Reading input from standard input
Warning: card &CELL ignored
Warning: card / ignored

     Current dimensions of program PWSCF are:
     Max number of different atomic species (ntypx) = 10
     Max number of k-points (npk) =  40000
     Max angular momentum in pseudopotentials (lmaxx) =  3

     Atomic positions and unit cell read from directory:
     ./ni_2.save/
 
               file Ni.pbe-n-rrkjus_psl.0.1.UPF: wavefunction(s)  3D renormalized

     Subspace diagonalization in iterative solution of the eigenvalue problem:
     a serial algorithm will be used

 
     Parallelization info
     --------------------
     sticks:   dense  smooth     PW     G-vecs:    dense   smooth      PW
     Min          52      52     21                  520      520     132
     Max          53      53     22                  522      522     135
     Sum         211     211     85                 2085     2085     531
 


     bravais-lattice index     =            2
     lattice parameter (alat)  =       6.6700  a.u.
     unit-cell volume          =      74.1852 (a.u.)^3
     number of atoms/cell      =            1
     number of atomic types    =            1
     number of electrons       =        10.00
     number of Kohn-Sham states=            9
     kinetic-energy cutoff     =      35.0000  Ry
     charge density cutoff     =     140.0000  Ry
     Exchange-correlation      = PBE ( 1  4  3  4 0 0)

     celldm(1)=   6.670000  celldm(2)=   0.000000  celldm(3)=   0.000000
     celldm(4)=   0.000000  celldm(5)=   0.000000  celldm(6)=   0.000000

     crystal axes: (cart. coord. in units of alat)
               a(1) = (  -0.500000   0.000000   0.500000 )  
               a(2) = (   0.000000   0.500000   0.500000 )  
               a(3) = (  -0.500000   0.500000   0.000000 )  

     reciprocal axes: (cart. coord. in units 2 pi/alat)
               b(1) = ( -1.000000 -1.000000  1.000000 )  
               b(2) = (  1.000000  1.000000  1.000000 )  
               b(3) = ( -1.000000  1.000000 -1.000000 )  


     PseudoPot. # 1 for Ni read from file:
     ./Ni.pbe-n-rrkjus_psl.0.1.UPF
     MD5 check sum: cc8312a90a87c4436b4c10d9eb951508
     Pseudo is Ultrasoft + core correction, Zval = 10.0
     Generated using "atomic" code by A. Dal Corso  v.5.0.2 svn rev. 9415
     Using radial grid of 1195 points,  6 beta functions with: 
                l(1) =   0
                l(2) =   0
                l(3) =   1
                l(4) =   1
                l(5) =   2
                l(6) =   2
     Q(r) pseudized with 0 coefficients 


     atomic species   valence    mass     pseudopotential
        Ni            10.00    58.69000     Ni( 1.00)

     Starting magnetic structure 
     atomic species   magnetization
        Ni           0.700

     48 Sym. Ops., with inversion, found


                                    s                        frac. trans.

      isym =  1     identity                                     

 cryst.   s( 1) = (     1          0          0      )
                  (     0          1          0      )
                  (     0          0          1      )

 cart.    s( 1) = (  1.0000000  0.0000000  0.0000000 )
                  (  0.0000000  1.0000000  0.0000000 )
                  (  0.0000000  0.0000000  1.0000000 )


      isym =  2     180 deg rotation - cart. axis [0,0,1]        

 cryst.   s( 2) = (     0          1         -1      )
                  (     1          0         -1      )
                  (     0          0         -1      )

 cart.    s( 2) = ( -1.0000000  0.0000000  0.0000000 )
                  (  0.0000000 -1.0000000  0.0000000 )
                  (  0.0000000  0.0000000  1.0000000 )


      isym =  3     180 deg rotation - cart. axis [0,1,0]        

 cryst.   s( 3) = (    -1          0          0      )
                  (    -1          0          1      )
                  (    -1          1          0      )

 cart.    s( 3) = ( -1.0000000  0.0000000  0.0000000 )
                  (  0.0000000  1.0000000  0.0000000 )
                  (  0.0000000  0.0000000 -1.0000000 )


      isym =  4     180 deg rotation - cart. axis [1,0,0]        

 cryst.   s( 4) = (     0         -1          1      )
                  (     0         -1          0      )
                  (     1         -1          0      )

 cart.    s( 4) = (  1.0000000  0.0000000  0.0000000 )
                  (  0.0000000 -1.0000000  0.0000000 )
                  (  0.0000000  0.0000000 -1.0000000 )


      isym =  5     180 deg rotation - cart. axis [1,1,0]        

 cryst.   s( 5) = (     0         -1          0      )
                  (    -1          0          0      )
                  (     0          0         -1      )

 cart.    s( 5) = (  0.0000000  1.0000000  0.0000000 )
                  (  1.0000000  0.0000000  0.0000000 )
                  (  0.0000000  0.0000000 -1.0000000 )


      isym =  6     180 deg rotation - cart. axis [1,-1,0]       

 cryst.   s( 6) = (    -1          0          1      )
                  (     0         -1          1      )
                  (     0          0          1      )

 cart.    s( 6) = (  0.0000000 -1.0000000  0.0000000 )
                  ( -1.0000000  0.0000000  0.0000000 )
                  (  0.0000000  0.0000000 -1.0000000 )


      isym =  7      90 deg rotation - cart. axis [0,0,-1]       

 cryst.   s( 7) = (     0          1          0      )
                  (     0          1         -1      )
                  (    -1          1          0      )

 cart.    s( 7) = (  0.0000000  1.0000000  0.0000000 )
                  ( -1.0000000  0.0000000  0.0000000 )
                  (  0.0000000  0.0000000  1.0000000 )


      isym =  8      90 deg rotation - cart. axis [0,0,1]        

 cryst.   s( 8) = (     1          0         -1      )
                  (     1          0          0      )
                  (     1         -1          0      )

 cart.    s( 8) = (  0.0000000 -1.0000000  0.0000000 )
                  (  1.0000000  0.0000000  0.0000000 )
                  (  0.0000000  0.0000000  1.0000000 )


      isym =  9     180 deg rotation - cart. axis [1,0,1]        

 cryst.   s( 9) = (    -1          0          0      )
                  (     0          0         -1      )
                  (     0         -1          0      )

 cart.    s( 9) = (  0.0000000  0.0000000  1.0000000 )
                  (  0.0000000 -1.0000000  0.0000000 )
                  (  1.0000000  0.0000000  0.0000000 )


      isym = 10     180 deg rotation - cart. axis [-1,0,1]       

 cryst.   s(10) = (     1          0          0      )
                  (     1         -1          0      )
                  (     1          0         -1      )

 cart.    s(10) = (  0.0000000  0.0000000 -1.0000000 )
                  (  0.0000000 -1.0000000  0.0000000 )
                  ( -1.0000000  0.0000000  0.0000000 )


      isym = 11      90 deg rotation - cart. axis [0,1,0]        

 cryst.   s(11) = (     0          1         -1      )
                  (    -1          1          0      )
                  (     0          1          0      )

 cart.    s(11) = (  0.0000000  0.0000000  1.0000000 )
                  (  0.0000000  1.0000000  0.0000000 )
                  ( -1.0000000  0.0000000  0.0000000 )


      isym = 12      90 deg rotation - cart. axis [0,-1,0]       

 cryst.   s(12) = (     0         -1          1      )
                  (     0          0          1      )
                  (    -1          0          1      )

 cart.    s(12) = (  0.0000000  0.0000000 -1.0000000 )
                  (  0.0000000  1.0000000  0.0000000 )
                  (  1.0000000  0.0000000  0.0000000 )


      isym = 13     180 deg rotation - cart. axis [0,1,1]        

 cryst.   s(13) = (    -1          1          0      )
                  (     0          1          0      )
                  (     0          1         -1      )

 cart.    s(13) = ( -1.0000000  0.0000000  0.0000000 )
                  (  0.0000000  0.0000000  1.0000000 )
                  (  0.0000000  1.0000000  0.0000000 )


      isym = 14     180 deg rotation - cart. axis [0,1,-1]       

 cryst.   s(14) = (     0          0         -1      )
                  (     0         -1          0      )
                  (    -1          0          0      )

 cart.    s(14) = ( -1.0000000  0.0000000  0.0000000 )
                  (  0.0000000  0.0000000 -1.0000000 )
                  (  0.0000000 -1.0000000  0.0000000 )


      isym = 15      90 deg rotation - cart. axis [-1,0,0]       

 cryst.   s(15) = (     0          0          1      )
                  (    -1          0          1      )
                  (     0         -1          1      )

 cart.    s(15) = (  1.0000000  0.0000000  0.0000000 )
                  (  0.0000000  0.0000000  1.0000000 )
                  (  0.0000000 -1.0000000  0.0000000 )


      isym = 16      90 deg rotation - cart. axis [1,0,0]        

 cryst.   s(16) = (     1         -1          0      )
                  (     1          0         -1      )
                  (     1          0          0      )

 cart.    s(16) = (  1.0000000  0.0000000  0.0000000 )
                  (  0.0000000  0.0000000 -1.0000000 )
                  (  0.0000000  1.0000000  0.0000000 )


      isym = 17     120 deg rotation - cart. axis [-1,-1,-1]     

 cryst.   s(17) = (    -1          0          1      )
                  (    -1          1          0      )
                  (    -1          0          0      )

 cart.    s(17) = (  0.0000000  1.0000000  0.0000000 )
                  (  0.0000000  0.0000000  1.0000000 )
                  (  1.0000000  0.0000000  0.0000000 )


      isym = 18     120 deg rotation - cart. axis [-1,1,1]       

 cryst.   s(18) = (     0          1          0      )
                  (     0          0          1      )
                  (     1          0          0      )

 cart.    s(18) = (  0.0000000 -1.0000000  0.0000000 )
                  (  0.0000000  0.0000000  1.0000000 )
                  ( -1.0000000  0.0000000  0.0000000 )


      isym = 19     120 deg rotation - cart. axis [1,1,-1]       

 cryst.   s(19) = (     1          0         -1      )
                  (     0          0         -1      )
                  (     0          1         -1      )

 cart.    s(19) = (  0.0000000  1.0000000  0.0000000 )
                  (  0.0000000  0.0000000 -1.0000000 )
                  ( -1.0000000  0.0000000  0.0000000 )


      isym = 20     120 deg rotation - cart. axis [1,-1,1]       

 cryst.   s(20) = (     0         -1          0      )
                  (     1         -1          0      )
                  (     0         -1          1      )

 cart.    s(20) = (  0.0000000 -1.0000000  0.0000000 )
                  (  0.0000000  0.0000000 -1.0000000 )
                  (  1.0000000  0.0000000  0.0000000 )


      isym = 21     120 deg rotation - cart. axis [1,1,1]        

 cryst.   s(21) = (     0          0         -1      )
                  (     0          1         -1      )
                  (     1          0         -1      )

 cart.    s(21) = (  0.0000000  0.0000000  1.0000000 )
                  (  1.0000000  0.0000000  0.0000000 )
                  (  0.0000000  1.0000000  0.0000000 )


      isym = 22     120 deg rotation - cart. axis [-1,1,-1]      

 cryst.   s(22) = (    -1          1          0      )
                  (    -1          0          0      )
                  (    -1          0          1      )

 cart.    s(22) = (  0.0000000  0.0000000  1.0000000 )
                  ( -1.0000000  0.0000000  0.0000000 )
                  (  0.0000000 -1.0000000  0.0000000 )


      isym = 23     120 deg rotation - cart. axis [1,-1,-1]      

 cryst.   s(23) = (     0          0          1      )
                  (     1          0          0      )
                  (     0          1          0      )

 cart.    s(23) = (  0.0000000  0.0000000 -1.0000000 )
                  ( -1.0000000  0.0000000  0.0000000 )
                  (  0.0000000  1.0000000  0.0000000 )


      isym = 24     120 deg rotation - cart. axis [-1,-1,1]      

 cryst.   s(24) = (     1         -1          0      )
                  (     0         -1          1      )
                  (     0         -1          0      )

 cart.    s(24) = (  0.0000000  0.0000000 -1.0000000 )
                  (  1.0000000  0.0000000  0.0000000 )
                  (  0.0000000 -1.0000000  0.0000000 )


      isym = 25     inversion                                    

 cryst.   s(25) = (    -1          0          0      )
                  (     0         -1          0      )
                  (     0          0         -1      )

 cart.    s(25) = ( -1.0000000  0.0000000  0.0000000 )
                  (  0.0000000 -1.0000000  0.0000000 )
                  (  0.0000000  0.0000000 -1.0000000 )


      isym = 26     inv. 180 deg rotation - cart. axis [0,0,1]   

 cryst.   s(26) = (     0         -1          1      )
                  (    -1          0          1      )
                  (     0          0          1      )

 cart.    s(26) = (  1.0000000  0.0000000  0.0000000 )
                  (  0.0000000  1.0000000  0.0000000 )
                  (  0.0000000  0.0000000 -1.0000000 )


      isym = 27     inv. 180 deg rotation - cart. axis [0,1,0]   

 cryst.   s(27) = (     1          0          0      )
                  (     1          0         -1      )
                  (     1         -1          0      )

 cart.    s(27) = (  1.0000000  0.0000000  0.0000000 )
                  (  0.0000000 -1.0000000  0.0000000 )
                  (  0.0000000  0.0000000  1.0000000 )


      isym = 28     inv. 180 deg rotation - cart. axis [1,0,0]   

 cryst.   s(28) = (     0          1         -1      )
                  (     0          1          0      )
                  (    -1          1          0      )

 cart.    s(28) = ( -1.0000000  0.0000000  0.0000000 )
                  (  0.0000000  1.0000000  0.0000000 )
                  (  0.0000000  0.0000000  1.0000000 )


      isym = 29     inv. 180 deg rotation - cart. axis [1,1,0]   

 cryst.   s(29) = (     0          1          0      )
                  (     1          0          0      )
                  (     0          0          1      )

 cart.    s(29) = (  0.0000000 -1.0000000  0.0000000 )
                  ( -1.0000000  0.0000000  0.0000000 )
                  (  0.0000000  0.0000000  1.0000000 )


      isym = 30     inv. 180 deg rotation - cart. axis [1,-1,0]  

 cryst.   s(30) = (     1          0         -1      )
                  (     0          1         -1      )
                  (     0          0         -1      )

 cart.    s(30) = (  0.0000000  1.0000000  0.0000000 )
                  (  1.0000000  0.0000000  0.0000000 )
                  (  0.0000000  0.0000000  1.0000000 )


      isym = 31     inv.  90 deg rotation - cart. axis [0,0,-1]  

 cryst.   s(31) = (     0         -1          0      )
                  (     0         -1          1      )
                  (     1         -1          0      )

 cart.    s(31) = (  0.0000000 -1.0000000  0.0000000 )
                  (  1.0000000  0.0000000  0.0000000 )
                  (  0.0000000  0.0000000 -1.0000000 )


      isym = 32     inv.  90 deg rotation - cart. axis [0,0,1]   

 cryst.   s(32) = (    -1          0          1      )
                  (    -1          0          0      )
                  (    -1          1          0      )

 cart.    s(32) = (  0.0000000  1.0000000  0.0000000 )
                  ( -1.0000000  0.0000000  0.0000000 )
                  (  0.0000000  0.0000000 -1.0000000 )


      isym = 33     inv. 180 deg rotation - cart. axis [1,0,1]   

 cryst.   s(33) = (     1          0          0      )
                  (     0          0          1      )
                  (     0          1          0      )

 cart.    s(33) = (  0.0000000  0.0000000 -1.0000000 )
                  (  0.0000000  1.0000000  0.0000000 )
                  ( -1.0000000  0.0000000  0.0000000 )


      isym = 34     inv. 180 deg rotation - cart. axis [-1,0,1]  

 cryst.   s(34) = (    -1          0          0      )
                  (    -1          1          0      )
                  (    -1          0          1      )

 cart.    s(34) = (  0.0000000  0.0000000  1.0000000 )
                  (  0.0000000  1.0000000  0.0000000 )
                  (  1.0000000  0.0000000  0.0000000 )


      isym = 35     inv.  90 deg rotation - cart. axis [0,1,0]   

 cryst.   s(35) = (     0         -1          1      )
                  (     1         -1          0      )
                  (     0         -1          0      )

 cart.    s(35) = (  0.0000000  0.0000000 -1.0000000 )
                  (  0.0000000 -1.0000000  0.0000000 )
                  (  1.0000000  0.0000000  0.0000000 )


      isym = 36     inv.  90 deg rotation - cart. axis [0,-1,0]  

 cryst.   s(36) = (     0          1         -1      )
                  (     0          0         -1      )
                  (     1          0         -1      )

 cart.    s(36) = (  0.0000000  0.0000000  1.0000000 )
                  (  0.0000000 -1.0000000  0.0000000 )
                  ( -1.0000000  0.0000000  0.0000000 )


      isym = 37     inv. 180 deg rotation - cart. axis [0,1,1]   

 cryst.   s(37) = (     1         -1          0      )
                  (     0         -1          0      )
                  (     0         -1          1      )

 cart.    s(37) = (  1.0000000  0.0000000  0.0000000 )
                  (  0.0000000  0.0000000 -1.0000000 )
                  (  0.0000000 -1.0000000  0.0000000 )


      isym = 38     inv. 180 deg rotation - cart. axis [0,1,-1]  

 cryst.   s(38) = (     0          0          1      )
                  (     0          1          0      )
                  (     1          0          0      )

 cart.    s(38) = (  1.0000000  0.0000000  0.0000000 )
                  (  0.0000000  0.0000000  1.0000000 )
                  (  0.0000000  1.0000000  0.0000000 )


      isym = 39     inv.  90 deg rotation - cart. axis [-1,0,0]  

 cryst.   s(39) = (     0          0         -1      )
                  (     1          0         -1      )
                  (     0          1         -1      )

 cart.    s(39) = ( -1.0000000  0.0000000  0.0000000 )
                  (  0.0000000  0.0000000 -1.0000000 )
                  (  0.0000000  1.0000000  0.0000000 )


      isym = 40     inv.  90 deg rotation - cart. axis [1,0,0]   

 cryst.   s(40) = (    -1          1          0      )
                  (    -1          0          1      )
                  (    -1          0          0      )

 cart.    s(40) = ( -1.0000000  0.0000000  0.0000000 )
                  (  0.0000000  0.0000000  1.0000000 )
                  (  0.0000000 -1.0000000  0.0000000 )


      isym = 41     inv. 120 deg rotation - cart. axis [-1,-1,-1]

 cryst.   s(41) = (     1          0         -1      )
                  (     1         -1          0      )
                  (     1          0          0      )

 cart.    s(41) = (  0.0000000 -1.0000000  0.0000000 )
                  (  0.0000000  0.0000000 -1.0000000 )
                  ( -1.0000000  0.0000000  0.0000000 )


      isym = 42     inv. 120 deg rotation - cart. axis [-1,1,1]  

 cryst.   s(42) = (     0         -1          0      )
                  (     0          0         -1      )
                  (    -1          0          0      )

 cart.    s(42) = (  0.0000000  1.0000000  0.0000000 )
                  (  0.0000000  0.0000000 -1.0000000 )
                  (  1.0000000  0.0000000  0.0000000 )


      isym = 43     inv. 120 deg rotation - cart. axis [1,1,-1]  

 cryst.   s(43) = (    -1          0          1      )
                  (     0          0          1      )
                  (     0         -1          1      )

 cart.    s(43) = (  0.0000000 -1.0000000  0.0000000 )
                  (  0.0000000  0.0000000  1.0000000 )
                  (  1.0000000  0.0000000  0.0000000 )


      isym = 44     inv. 120 deg rotation - cart. axis [1,-1,1]  

 cryst.   s(44) = (     0          1          0      )
                  (    -1          1          0      )
                  (     0          1         -1      )

 cart.    s(44) = (  0.0000000  1.0000000  0.0000000 )
                  (  0.0000000  0.0000000  1.0000000 )
                  ( -1.0000000  0.0000000  0.0000000 )


      isym = 45     inv. 120 deg rotation - cart. axis [1,1,1]   

 cryst.   s(45) = (     0          0          1      )
                  (     0         -1          1      )
                  (    -1          0          1      )

 cart.    s(45) = (  0.0000000  0.0000000 -1.0000000 )
                  ( -1.0000000  0.0000000  0.0000000 )
                  (  0.0000000 -1.0000000  0.0000000 )


      isym = 46     inv. 120 deg rotation - cart. axis [-1,1,-1] 

 cryst.   s(46) = (     1         -1          0      )
                  (     1          0          0      )
                  (     1          0         -1      )

 cart.    s(46) = (  0.0000000  0.0000000 -1.0000000 )
                  (  1.0000000  0.0000000  0.0000000 )
                  (  0.0000000  1.0000000  0.0000000 )


      isym = 47     inv. 120 deg rotation - cart. axis [1,-1,-1] 

 cryst.   s(47) = (     0          0         -1      )
                  (    -1          0          0      )
                  (     0         -1          0      )

 cart.    s(47) = (  0.0000000  0.0000000  1.0000000 )
                  (  1.0000000  0.0000000  0.0000000 )
                  (  0.0000000 -1.0000000  0.0000000 )


      isym = 48     inv. 120 deg rotation - cart. axis [-1,-1,1] 

 cryst.   s(48) = (    -1          1          0      )
                  (     0          1         -1      )
                  (     0          1          0      )

 cart.    s(48) = (  0.0000000  0.0000000  1.0000000 )
                  ( -1.0000000  0.0000000  0.0000000 )
                  (  0.0000000  1.0000000  0.0000000 )


     point group O_h (m-3m) 
     there are 10 classes
     the character table:

       E     8C3   3C2   6C4   6C2'  i     8S6   3s_h  6S4   6s_d 
A_1g   1.00  1.00  1.00  1.00  1.00  1.00  1.00  1.00  1.00  1.00
A_2g   1.00  1.00  1.00 -1.00 -1.00  1.00  1.00  1.00 -1.00 -1.00
E_g    2.00 -1.00  2.00  0.00  0.00  2.00 -1.00  2.00  0.00  0.00
T_1g   3.00  0.00 -1.00  1.00 -1.00  3.00  0.00 -1.00  1.00 -1.00
T_2g   3.00  0.00 -1.00 -1.00  1.00  3.00  0.00 -1.00 -1.00  1.00
A_1u   1.00  1.00  1.00  1.00  1.00 -1.00 -1.00 -1.00 -1.00 -1.00
A_2u   1.00  1.00  1.00 -1.00 -1.00 -1.00 -1.00 -1.00  1.00  1.00
E_u    2.00 -1.00  2.00  0.00  0.00 -2.00  1.00 -2.00  0.00  0.00
T_1u   3.00  0.00 -1.00  1.00 -1.00 -3.00  0.00  1.00 -1.00  1.00
T_2u   3.00  0.00 -1.00 -1.00  1.00 -3.00  0.00  1.00  1.00 -1.00

     the symmetry operations in each class and the name of the first element:

     E        1
          identity                                               
     8C3     17   19   20   18   24   21   22   23
          120 deg rotation - cart. axis [-1,-1,-1]               
     3C2      2    4    3
          180 deg rotation - cart. axis [0,0,1]                  
     6C4      7    8   15   16   12   11
           90 deg rotation - cart. axis [0,0,-1]                 
     6C2'     5    6   14   13   10    9
          180 deg rotation - cart. axis [1,1,0]                  
     i       25
          inversion                                              
     8S6     41   43   44   42   48   45   46   47
          inv. 120 deg rotation - cart. axis [-1,-1,-1]          
     3s_h    26   28   27
          inv. 180 deg rotation - cart. axis [0,0,1]             
     6S4     31   32   39   40   36   35
          inv.  90 deg rotation - cart. axis [0,0,-1]            
     6s_d    29   30   38   37   34   33
          inv. 180 deg rotation - cart. axis [1,1,0]             

   Cartesian axes

     site n.     atom                  positions (alat units)
         1           Ni  tau(   1) = (   0.0000000   0.0000000   0.0000000  )

   Crystallographic axes

     site n.     atom                  positions (cryst. coord.)
         1           Ni  tau(   1) = (  0.0000000  0.0000000  0.0000000  )

     number of k points=   110  Marzari-Vanderbilt smearing, width (Ry)=  0.0100
                       cart. coord. in units 2pi/alat
        k(    1) = (  -0.0500000   0.0500000   0.0500000), wk =   0.0020000
        k(    2) = (  -0.1500000   0.1500000  -0.0500000), wk =   0.0060000
        k(    3) = (  -0.2500000   0.2500000  -0.1500000), wk =   0.0060000
        k(    4) = (  -0.3500000   0.3500000  -0.2500000), wk =   0.0060000
        k(    5) = (  -0.4500000   0.4500000  -0.3500000), wk =   0.0060000
        k(    6) = (   0.4500000  -0.4500000   0.5500000), wk =   0.0060000
        k(    7) = (   0.3500000  -0.3500000   0.4500000), wk =   0.0060000
        k(    8) = (   0.2500000  -0.2500000   0.3500000), wk =   0.0060000
        k(    9) = (   0.1500000  -0.1500000   0.2500000), wk =   0.0060000
        k(   10) = (   0.0500000  -0.0500000   0.1500000), wk =   0.0060000
        k(   11) = (  -0.0500000   0.2500000   0.0500000), wk =   0.0060000
        k(   12) = (  -0.1500000   0.3500000  -0.0500000), wk =   0.0120000
        k(   13) = (  -0.2500000   0.4500000  -0.1500000), wk =   0.0120000
        k(   14) = (  -0.3500000   0.5500000  -0.2500000), wk =   0.0120000
        k(   15) = (   0.5500000  -0.3500000   0.6500000), wk =   0.0120000
        k(   16) = (   0.4500000  -0.2500000   0.5500000), wk =   0.0120000
        k(   17) = (   0.3500000  -0.1500000   0.4500000), wk =   0.0120000
        k(   18) = (   0.2500000  -0.0500000   0.3500000), wk =   0.0120000
        k(   19) = (   0.1500000   0.0500000   0.2500000), wk =   0.0120000
        k(   20) = (  -0.0500000   0.4500000   0.0500000), wk =   0.0060000
        k(   21) = (  -0.1500000   0.5500000  -0.0500000), wk =   0.0120000
        k(   22) = (  -0.2500000   0.6500000  -0.1500000), wk =   0.0120000
        k(   23) = (   0.6500000  -0.2500000   0.7500000), wk =   0.0120000
        k(   24) = (   0.5500000  -0.1500000   0.6500000), wk =   0.0120000
        k(   25) = (   0.4500000  -0.0500000   0.5500000), wk =   0.0120000
        k(   26) = (   0.3500000   0.0500000   0.4500000), wk =   0.0120000
        k(   27) = (   0.2500000   0.1500000   0.3500000), wk =   0.0120000
        k(   28) = (  -0.0500000   0.6500000   0.0500000), wk =   0.0060000
        k(   29) = (  -0.1500000   0.7500000  -0.0500000), wk =   0.0120000
        k(   30) = (   0.7500000  -0.1500000   0.8500000), wk =   0.0120000
        k(   31) = (   0.6500000  -0.0500000   0.7500000), wk =   0.0120000
        k(   32) = (   0.5500000   0.0500000   0.6500000), wk =   0.0120000
        k(   33) = (   0.4500000   0.1500000   0.5500000), wk =   0.0120000
        k(   34) = (   0.3500000   0.2500000   0.4500000), wk =   0.0120000
        k(   35) = (  -0.0500000   0.8500000   0.0500000), wk =   0.0060000
        k(   36) = (   0.8500000  -0.0500000   0.9500000), wk =   0.0120000
        k(   37) = (   0.7500000   0.0500000   0.8500000), wk =   0.0120000
        k(   38) = (   0.6500000   0.1500000   0.7500000), wk =   0.0120000
        k(   39) = (   0.5500000   0.2500000   0.6500000), wk =   0.0120000
        k(   40) = (   0.4500000   0.3500000   0.5500000), wk =   0.0120000
        k(   41) = (  -0.0500000  -0.9500000   0.0500000), wk =   0.0060000
        k(   42) = (  -0.1500000  -0.8500000  -0.0500000), wk =   0.0120000
        k(   43) = (  -0.2500000  -0.7500000  -0.1500000), wk =   0.0120000
        k(   44) = (  -0.3500000  -0.6500000  -0.2500000), wk =   0.0120000
        k(   45) = (  -0.0500000  -0.7500000   0.0500000), wk =   0.0060000
        k(   46) = (  -0.1500000  -0.6500000  -0.0500000), wk =   0.0120000
        k(   47) = (  -0.2500000  -0.5500000  -0.1500000), wk =   0.0120000
        k(   48) = (  -0.0500000  -0.5500000   0.0500000), wk =   0.0060000
        k(   49) = (  -0.1500000  -0.4500000  -0.0500000), wk =   0.0120000
        k(   50) = (  -0.0500000  -0.3500000   0.0500000), wk =   0.0060000
        k(   51) = (  -0.1500000   0.1500000   0.1500000), wk =   0.0020000
        k(   52) = (  -0.2500000   0.2500000   0.0500000), wk =   0.0060000
        k(   53) = (  -0.3500000   0.3500000  -0.0500000), wk =   0.0060000
        k(   54) = (  -0.4500000   0.4500000  -0.1500000), wk =   0.0060000
        k(   55) = (   0.4500000  -0.4500000   0.7500000), wk =   0.0060000
        k(   56) = (   0.3500000  -0.3500000   0.6500000), wk =   0.0060000
        k(   57) = (   0.2500000  -0.2500000   0.5500000), wk =   0.0060000
        k(   58) = (   0.1500000  -0.1500000   0.4500000), wk =   0.0060000
        k(   59) = (  -0.1500000   0.3500000   0.1500000), wk =   0.0060000
        k(   60) = (  -0.2500000   0.4500000   0.0500000), wk =   0.0120000
        k(   61) = (  -0.3500000   0.5500000  -0.0500000), wk =   0.0120000
        k(   62) = (   0.5500000  -0.3500000   0.8500000), wk =   0.0120000
        k(   63) = (   0.4500000  -0.2500000   0.7500000), wk =   0.0120000
        k(   64) = (   0.3500000  -0.1500000   0.6500000), wk =   0.0120000
        k(   65) = (   0.2500000  -0.0500000   0.5500000), wk =   0.0120000
        k(   66) = (  -0.1500000   0.5500000   0.1500000), wk =   0.0060000
        k(   67) = (  -0.2500000   0.6500000   0.0500000), wk =   0.0120000
        k(   68) = (   0.6500000  -0.2500000   0.9500000), wk =   0.0120000
        k(   69) = (   0.5500000  -0.1500000   0.8500000), wk =   0.0120000
        k(   70) = (   0.4500000  -0.0500000   0.7500000), wk =   0.0120000
        k(   71) = (   0.3500000   0.0500000   0.6500000), wk =   0.0120000
        k(   72) = (  -0.1500000   0.7500000   0.1500000), wk =   0.0060000
        k(   73) = (   0.7500000  -0.1500000   1.0500000), wk =   0.0120000
        k(   74) = (   0.6500000  -0.0500000   0.9500000), wk =   0.0120000
        k(   75) = (   0.5500000   0.0500000   0.8500000), wk =   0.0120000
        k(   76) = (   0.4500000   0.1500000   0.7500000), wk =   0.0120000
        k(   77) = (  -0.1500000  -1.0500000   0.1500000), wk =   0.0060000
        k(   78) = (  -0.2500000  -0.9500000   0.0500000), wk =   0.0120000
        k(   79) = (  -0.3500000  -0.8500000  -0.0500000), wk =   0.0120000
        k(   80) = (  -0.1500000  -0.8500000   0.1500000), wk =   0.0060000
        k(   81) = (  -0.2500000  -0.7500000   0.0500000), wk =   0.0120000
        k(   82) = (  -0.1500000  -0.6500000   0.1500000), wk =   0.0060000
        k(   83) = (  -0.2500000   0.2500000   0.2500000), wk =   0.0020000
        k(   84) = (  -0.3500000   0.3500000   0.1500000), wk =   0.0060000
        k(   85) = (  -0.4500000   0.4500000   0.0500000), wk =   0.0060000
        k(   86) = (   0.4500000  -0.4500000   0.9500000), wk =   0.0060000
        k(   87) = (   0.3500000  -0.3500000   0.8500000), wk =   0.0060000
        k(   88) = (   0.2500000  -0.2500000   0.7500000), wk =   0.0060000
        k(   89) = (  -0.2500000   0.4500000   0.2500000), wk =   0.0060000
        k(   90) = (  -0.3500000   0.5500000   0.1500000), wk =   0.0120000
        k(   91) = (   0.5500000  -0.3500000   1.0500000), wk =   0.0120000
        k(   92) = (   0.4500000  -0.2500000   0.9500000), wk =   0.0120000
        k(   93) = (   0.3500000  -0.1500000   0.8500000), wk =   0.0120000
        k(   94) = (  -0.2500000   0.6500000   0.2500000), wk =   0.0060000
        k(   95) = (   0.6500000  -0.2500000   1.1500000), wk =   0.0120000
        k(   96) = (   0.5500000  -0.1500000   1.0500000), wk =   0.0120000
        k(   97) = (   0.4500000  -0.0500000   0.9500000), wk =   0.0120000
        k(   98) = (  -0.2500000  -1.1500000   0.2500000), wk =   0.0060000
        k(   99) = (  -0.3500000  -1.0500000   0.1500000), wk =   0.0120000
        k(  100) = (  -0.2500000  -0.9500000   0.2500000), wk =   0.0060000
        k(  101) = (  -0.3500000   0.3500000   0.3500000), wk =   0.0020000
        k(  102) = (  -0.4500000   0.4500000   0.2500000), wk =   0.0060000
        k(  103) = (   0.4500000  -0.4500000   1.1500000), wk =   0.0060000
        k(  104) = (   0.3500000  -0.3500000   1.0500000), wk =   0.0060000
        k(  105) = (  -0.3500000   0.5500000   0.3500000), wk =   0.0060000
        k(  106) = (   0.5500000  -0.3500000   1.2500000), wk =   0.0120000
        k(  107) = (   0.4500000  -0.2500000   1.1500000), wk =   0.0120000
        k(  108) = (  -0.3500000  -1.2500000   0.3500000), wk =   0.0060000
        k(  109) = (  -0.4500000   0.4500000   0.4500000), wk =   0.0020000
        k(  110) = (   0.4500000  -0.4500000   1.3500000), wk =   0.0060000

                       cryst. coord.
        k(    1) = (   0.0500000   0.0500000   0.0500000), wk =   0.0020000
        k(    2) = (   0.0500000   0.0500000   0.1500000), wk =   0.0060000
        k(    3) = (   0.0500000   0.0500000   0.2500000), wk =   0.0060000
        k(    4) = (   0.0500000   0.0500000   0.3500000), wk =   0.0060000
        k(    5) = (   0.0500000   0.0500000   0.4500000), wk =   0.0060000
        k(    6) = (   0.0500000   0.0500000  -0.4500000), wk =   0.0060000
        k(    7) = (   0.0500000   0.0500000  -0.3500000), wk =   0.0060000
        k(    8) = (   0.0500000   0.0500000  -0.2500000), wk =   0.0060000
        k(    9) = (   0.0500000   0.0500000  -0.1500000), wk =   0.0060000
        k(   10) = (   0.0500000   0.0500000  -0.0500000), wk =   0.0060000
        k(   11) = (   0.0500000   0.1500000   0.1500000), wk =   0.0060000
        k(   12) = (   0.0500000   0.1500000   0.2500000), wk =   0.0120000
        k(   13) = (   0.0500000   0.1500000   0.3500000), wk =   0.0120000
        k(   14) = (   0.0500000   0.1500000   0.4500000), wk =   0.0120000
        k(   15) = (   0.0500000   0.1500000  -0.4500000), wk =   0.0120000
        k(   16) = (   0.0500000   0.1500000  -0.3500000), wk =   0.0120000
        k(   17) = (   0.0500000   0.1500000  -0.2500000), wk =   0.0120000
        k(   18) = (   0.0500000   0.1500000  -0.1500000), wk =   0.0120000
        k(   19) = (   0.0500000   0.1500000  -0.0500000), wk =   0.0120000
        k(   20) = (   0.0500000   0.2500000   0.2500000), wk =   0.0060000
        k(   21) = (   0.0500000   0.2500000   0.3500000), wk =   0.0120000
        k(   22) = (   0.0500000   0.2500000   0.4500000), wk =   0.0120000
        k(   23) = (   0.0500000   0.2500000  -0.4500000), wk =   0.0120000
        k(   24) = (   0.0500000   0.2500000  -0.3500000), wk =   0.0120000
        k(   25) = (   0.0500000   0.2500000  -0.2500000), wk =   0.0120000
        k(   26) = (   0.0500000   0.2500000  -0.1500000), wk =   0.0120000
        k(   27) = (   0.0500000   0.2500000  -0.0500000), wk =   0.0120000
        k(   28) = (   0.0500000   0.3500000   0.3500000), wk =   0.0060000
        k(   29) = (   0.0500000   0.3500000   0.4500000), wk =   0.0120000
        k(   30) = (   0.0500000   0.3500000  -0.4500000), wk =   0.0120000
        k(   31) = (   0.0500000   0.3500000  -0.3500000), wk =   0.0120000
        k(   32) = (   0.0500000   0.3500000  -0.2500000), wk =   0.0120000
        k(   33) = (   0.0500000   0.3500000  -0.1500000), wk =   0.0120000
        k(   34) = (   0.0500000   0.3500000  -0.0500000), wk =   0.0120000
        k(   35) = (   0.0500000   0.4500000   0.4500000), wk =   0.0060000
        k(   36) = (   0.0500000   0.4500000  -0.4500000), wk =   0.0120000
        k(   37) = (   0.0500000   0.4500000  -0.3500000), wk =   0.0120000
        k(   38) = (   0.0500000   0.4500000  -0.2500000), wk =   0.0120000
        k(   39) = (   0.0500000   0.4500000  -0.1500000), wk =   0.0120000
        k(   40) = (   0.0500000   0.4500000  -0.0500000), wk =   0.0120000
        k(   41) = (   0.0500000  -0.4500000  -0.4500000), wk =   0.0060000
        k(   42) = (   0.0500000  -0.4500000  -0.3500000), wk =   0.0120000
        k(   43) = (   0.0500000  -0.4500000  -0.2500000), wk =   0.0120000
        k(   44) = (   0.0500000  -0.4500000  -0.1500000), wk =   0.0120000
        k(   45) = (   0.0500000  -0.3500000  -0.3500000), wk =   0.0060000
        k(   46) = (   0.0500000  -0.3500000  -0.2500000), wk =   0.0120000
        k(   47) = (   0.0500000  -0.3500000  -0.1500000), wk =   0.0120000
        k(   48) = (   0.0500000  -0.2500000  -0.2500000), wk =   0.0060000
        k(   49) = (   0.0500000  -0.2500000  -0.1500000), wk =   0.0120000
        k(   50) = (   0.0500000  -0.1500000  -0.1500000), wk =   0.0060000
        k(   51) = (   0.1500000   0.1500000   0.1500000), wk =   0.0020000
        k(   52) = (   0.1500000   0.1500000   0.2500000), wk =   0.0060000
        k(   53) = (   0.1500000   0.1500000   0.3500000), wk =   0.0060000
        k(   54) = (   0.1500000   0.1500000   0.4500000), wk =   0.0060000
        k(   55) = (   0.1500000   0.1500000  -0.4500000), wk =   0.0060000
        k(   56) = (   0.1500000   0.1500000  -0.3500000), wk =   0.0060000
        k(   57) = (   0.1500000   0.1500000  -0.2500000), wk =   0.0060000
        k(   58) = (   0.1500000   0.1500000  -0.1500000), wk =   0.0060000
        k(   59) = (   0.1500000   0.2500000   0.2500000), wk =   0.0060000
        k(   60) = (   0.1500000   0.2500000   0.3500000), wk =   0.0120000
        k(   61) = (   0.1500000   0.2500000   0.4500000), wk =   0.0120000
        k(   62) = (   0.1500000   0.2500000  -0.4500000), wk =   0.0120000
        k(   63) = (   0.1500000   0.2500000  -0.3500000), wk =   0.0120000
        k(   64) = (   0.1500000   0.2500000  -0.2500000), wk =   0.0120000
        k(   65) = (   0.1500000   0.2500000  -0.1500000), wk =   0.0120000
        k(   66) = (   0.1500000   0.3500000   0.3500000), wk =   0.0060000
        k(   67) = (   0.1500000   0.3500000   0.4500000), wk =   0.0120000
        k(   68) = (   0.1500000   0.3500000  -0.4500000), wk =   0.0120000
        k(   69) = (   0.1500000   0.3500000  -0.3500000), wk =   0.0120000
        k(   70) = (   0.1500000   0.3500000  -0.2500000), wk =   0.0120000
        k(   71) = (   0.1500000   0.3500000  -0.1500000), wk =   0.0120000
        k(   72) = (   0.1500000   0.4500000   0.4500000), wk =   0.0060000
        k(   73) = (   0.1500000   0.4500000  -0.4500000), wk =   0.0120000
        k(   74) = (   0.1500000   0.4500000  -0.3500000), wk =   0.0120000
        k(   75) = (   0.1500000   0.4500000  -0.2500000), wk =   0.0120000
        k(   76) = (   0.1500000   0.4500000  -0.1500000), wk =   0.0120000
        k(   77) = (   0.1500000  -0.4500000  -0.4500000), wk =   0.0060000
        k(   78) = (   0.1500000  -0.4500000  -0.3500000), wk =   0.0120000
        k(   79) = (   0.1500000  -0.4500000  -0.2500000), wk =   0.0120000
        k(   80) = (   0.1500000  -0.3500000  -0.3500000), wk =   0.0060000
        k(   81) = (   0.1500000  -0.3500000  -0.2500000), wk =   0.0120000
        k(   82) = (   0.1500000  -0.2500000  -0.2500000), wk =   0.0060000
        k(   83) = (   0.2500000   0.2500000   0.2500000), wk =   0.0020000
        k(   84) = (   0.2500000   0.2500000   0.3500000), wk =   0.0060000
        k(   85) = (   0.2500000   0.2500000   0.4500000), wk =   0.0060000
        k(   86) = (   0.2500000   0.2500000  -0.4500000), wk =   0.0060000
        k(   87) = (   0.2500000   0.2500000  -0.3500000), wk =   0.0060000
        k(   88) = (   0.2500000   0.2500000  -0.2500000), wk =   0.0060000
        k(   89) = (   0.2500000   0.3500000   0.3500000), wk =   0.0060000
        k(   90) = (   0.2500000   0.3500000   0.4500000), wk =   0.0120000
        k(   91) = (   0.2500000   0.3500000  -0.4500000), wk =   0.0120000
        k(   92) = (   0.2500000   0.3500000  -0.3500000), wk =   0.0120000
        k(   93) = (   0.2500000   0.3500000  -0.2500000), wk =   0.0120000
        k(   94) = (   0.2500000   0.4500000   0.4500000), wk =   0.0060000
        k(   95) = (   0.2500000   0.4500000  -0.4500000), wk =   0.0120000
        k(   96) = (   0.2500000   0.4500000  -0.3500000), wk =   0.0120000
        k(   97) = (   0.2500000   0.4500000  -0.2500000), wk =   0.0120000
        k(   98) = (   0.2500000  -0.4500000  -0.4500000), wk =   0.0060000
        k(   99) = (   0.2500000  -0.4500000  -0.3500000), wk =   0.0120000
        k(  100) = (   0.2500000  -0.3500000  -0.3500000), wk =   0.0060000
        k(  101) = (   0.3500000   0.3500000   0.3500000), wk =   0.0020000
        k(  102) = (   0.3500000   0.3500000   0.4500000), wk =   0.0060000
        k(  103) = (   0.3500000   0.3500000  -0.4500000), wk =   0.0060000
        k(  104) = (   0.3500000   0.3500000  -0.3500000), wk =   0.0060000
        k(  105) = (   0.3500000   0.4500000   0.4500000), wk =   0.0060000
        k(  106) = (   0.3500000   0.4500000  -0.4500000), wk =   0.0120000
        k(  107) = (   0.3500000   0.4500000  -0.3500000), wk =   0.0120000
        k(  108) = (   0.3500000  -0.4500000  -0.4500000), wk =   0.0060000
        k(  109) = (   0.4500000   0.4500000   0.4500000), wk =   0.0020000
        k(  110) = (   0.4500000   0.4500000  -0.4500000), wk =   0.0060000

     Dense  grid:     2085 G-vectors     FFT dimensions: (  18,  18,  18)

     Estimated max dynamical RAM per process >       0.38MB

     Estimated total allocated dynamical RAM >       1.54MB
     Generating pointlists ...
     new r_m :   0.2917 (alat units)  1.9455 (a.u.) for type    1

     The potential is recalculated from file :
     ./ni_2.save/charge-density.dat

     Starting wfc are    9 randomized atomic wfcs

     Band Structure Calculation
     Davidson diagonalization with overlap

     Computing kpt #:     1
     total cpu time spent up to now is        0.6 secs

     Computing kpt #:     2
     total cpu time spent up to now is        0.6 secs

     Computing kpt #:     3
     total cpu time spent up to now is        0.6 secs

     Computing kpt #:     4
     total cpu time spent up to now is        0.7 secs

     Computing kpt #:     5
     total cpu time spent up to now is        0.7 secs

     Computing kpt #:     6
     total cpu time spent up to now is        0.7 secs

     Computing kpt #:     7
     total cpu time spent up to now is        0.7 secs

     Computing kpt #:     8
     total cpu time spent up to now is        0.7 secs

     Computing kpt #:     9
     total cpu time spent up to now is        0.7 secs

     Computing kpt #:    10
     total cpu time spent up to now is        0.7 secs

     Computing kpt #:    11
     total cpu time spent up to now is        0.8 secs

     Computing kpt #:    12
     total cpu time spent up to now is        0.8 secs

     Computing kpt #:    13
     total cpu time spent up to now is        0.8 secs

     Computing kpt #:    14
     total cpu time spent up to now is        0.8 secs

     Computing kpt #:    15
     total cpu time spent up to now is        0.8 secs

     Computing kpt #:    16
     total cpu time spent up to now is        0.8 secs

     Computing kpt #:    17
     total cpu time spent up to now is        0.8 secs

     Computing kpt #:    18
     total cpu time spent up to now is        0.9 secs

     Computing kpt #:    19
     total cpu time spent up to now is        0.9 secs

     Computing kpt #:    20
     total cpu time spent up to now is        0.9 secs

     Computing kpt #:    21
     total cpu time spent up to now is        0.9 secs

     Computing kpt #:    22
     total cpu time spent up to now is        0.9 secs

     Computing kpt #:    23
     total cpu time spent up to now is        0.9 secs

     Computing kpt #:    24
     total cpu time spent up to now is        0.9 secs

     Computing kpt #:    25
     total cpu time spent up to now is        0.9 secs

     Computing kpt #:    26
     total cpu time spent up to now is        0.9 secs

     Computing kpt #:    27
     total cpu time spent up to now is        1.0 secs

     Computing kpt #:    28
     total cpu time spent up to now is        1.0 secs

     Computing kpt #:    29
     total cpu time spent up to now is        1.0 secs

     Computing kpt #:    30
     total cpu time spent up to now is        1.0 secs

     Computing kpt #:    31
     total cpu time spent up to now is        1.0 secs

     Computing kpt #:    32
     total cpu time spent up to now is        1.0 secs

     Computing kpt #:    33
     total cpu time spent up to now is        1.0 secs

     Computing kpt #:    34
     total cpu time spent up to now is        1.0 secs

     Computing kpt #:    35
     total cpu time spent up to now is        1.0 secs

     Computing kpt #:    36
     total cpu time spent up to now is        1.0 secs

     Computing kpt #:    37
     total cpu time spent up to now is        1.1 secs

     Computing kpt #:    38
     total cpu time spent up to now is        1.1 secs

     Computing kpt #:    39
     total cpu time spent up to now is        1.1 secs

     Computing kpt #:    40
     total cpu time spent up to now is        1.1 secs

     Computing kpt #:    41
     total cpu time spent up to now is        1.1 secs

     Computing kpt #:    42
     total cpu time spent up to now is        1.1 secs

     Computing kpt #:    43
     total cpu time spent up to now is        1.1 secs

     Computing kpt #:    44
     total cpu time spent up to now is        1.1 secs

     Computing kpt #:    45
     total cpu time spent up to now is        1.1 secs

     Computing kpt #:    46
     total cpu time spent up to now is        1.1 secs

     Computing kpt #:    47
     total cpu time spent up to now is        1.2 secs

     Computing kpt #:    48
     total cpu time spent up to now is        1.2 secs

     Computing kpt #:    49
     total cpu time spent up to now is        1.2 secs

     Computing kpt #:    50
     total cpu time spent up to now is        1.2 secs

     Computing kpt #:    51
     total cpu time spent up to now is        1.2 secs

     Computing kpt #:    52
     total cpu time spent up to now is        1.2 secs

     Computing kpt #:    53
     total cpu time spent up to now is        1.2 secs

     Computing kpt #:    54
     total cpu time spent up to now is        1.2 secs

     Computing kpt #:    55
     total cpu time spent up to now is        1.3 secs

     Computing kpt #:    56
     total cpu time spent up to now is        1.3 secs

     Computing kpt #:    57
     total cpu time spent up to now is        1.3 secs

     Computing kpt #:    58
     total cpu time spent up to now is        1.3 secs

     Computing kpt #:    59
     total cpu time spent up to now is        1.3 secs

     Computing kpt #:    60
     total cpu time spent up to now is        1.3 secs

     Computing kpt #:    61
     total cpu time spent up to now is        1.3 secs

     Computing kpt #:    62
     total cpu time spent up to now is        1.3 secs

     Computing kpt #:    63
     total cpu time spent up to now is        1.3 secs

     Computing kpt #:    64
     total cpu time spent up to now is        1.4 secs

     Computing kpt #:    65
     total cpu time spent up to now is        1.4 secs

     Computing kpt #:    66
     total cpu time spent up to now is        1.4 secs

     Computing kpt #:    67
     total cpu time spent up to now is        1.4 secs

     Computing kpt #:    68
     total cpu time spent up to now is        1.4 secs

     Computing kpt #:    69
     total cpu time spent up to now is        1.4 secs

     Computing kpt #:    70
     total cpu time spent up to now is        1.4 secs

     Computing kpt #:    71
     total cpu time spent up to now is        1.4 secs

     Computing kpt #:    72
     total cpu time spent up to now is        1.4 secs

     Computing kpt #:    73
     total cpu time spent up to now is        1.4 secs

     Computing kpt #:    74
     total cpu time spent up to now is        1.4 secs

     Computing kpt #:    75
     total cpu time spent up to now is        1.5 secs

     Computing kpt #:    76
     total cpu time spent up to now is        1.5 secs

     Computing kpt #:    77
     total cpu time spent up to now is        1.5 secs

     Computing kpt #:    78
     total cpu time spent up to now is        1.5 secs

     Computing kpt #:    79
     total cpu time spent up to now is        1.5 secs

     Computing kpt #:    80
     total cpu time spent up to now is        1.5 secs

     Computing kpt #:    81
     total cpu time spent up to now is        1.5 secs

     Computing kpt #:    82
     total cpu time spent up to now is        1.5 secs

     Computing kpt #:    83
     total cpu time spent up to now is        1.5 secs

     Computing kpt #:    84
     total cpu time spent up to now is        1.5 secs

     Computing kpt #:    85
     total cpu time spent up to now is        1.6 secs

     Computing kpt #:    86
     total cpu time spent up to now is        1.6 secs

     Computing kpt #:    87
     total cpu time spent up to now is        1.6 secs

     Computing kpt #:    88
     total cpu time spent up to now is        1.6 secs

     Computing kpt #:    89
     total cpu time spent up to now is        1.6 secs

     Computing kpt #:    90
     total cpu time spent up to now is        1.6 secs

     Computing kpt #:    91
     total cpu time spent up to now is        1.6 secs

     Computing kpt #:    92
     total cpu time spent up to now is        1.6 secs

     Computing kpt #:    93
     total cpu time spent up to now is        1.6 secs

     Computing kpt #:    94
     total cpu time spent up to now is        1.6 secs

     Computing kpt #:    95
     total cpu time spent up to now is        1.7 secs

     Computing kpt #:    96
     total cpu time spent up to now is        1.7 secs

     Computing kpt #:    97
     total cpu time spent up to now is        1.7 secs

     Computing kpt #:    98
     total cpu time spent up to now is        1.7 secs

     Computing kpt #:    99
     total cpu time spent up to now is        1.7 secs

     Computing kpt #:   100
     total cpu time spent up to now is        1.7 secs

     Computing kpt #:   101
     total cpu time spent up to now is        1.7 secs

     Computing kpt #:   102
     total cpu time spent up to now is        1.7 secs

     Computing kpt #:   103
     total cpu time spent up to now is        1.7 secs

     Computing kpt #:   104
     total cpu time spent up to now is        1.7 secs

     Computing kpt #:   105
     total cpu time spent up to now is        1.8 secs

     Computing kpt #:   106
     total cpu time spent up to now is        1.8 secs

     Computing kpt #:   107
     total cpu time spent up to now is        1.8 secs

     Computing kpt #:   108
     total cpu time spent up to now is        1.8 secs

     Computing kpt #:   109
     total cpu time spent up to now is        1.8 secs

     Computing kpt #:   110
     total cpu time spent up to now is        1.8 secs

     Computing kpt #:   111
     total cpu time spent up to now is        1.8 secs

     Computing kpt #:   112
     total cpu time spent up to now is        1.8 secs

     Computing kpt #:   113
     total cpu time spent up to now is        1.9 secs

     Computing kpt #:   114
     total cpu time spent up to now is        1.9 secs

     Computing kpt #:   115
     total cpu time spent up to now is        1.9 secs

     Computing kpt #:   116
     total cpu time spent up to now is        1.9 secs

     Computing kpt #:   117
     total cpu time spent up to now is        1.9 secs

     Computing kpt #:   118
     total cpu time spent up to now is        1.9 secs

     Computing kpt #:   119
     total cpu time spent up to now is        1.9 secs

     Computing kpt #:   120
     total cpu time spent up to now is        1.9 secs

     Computing kpt #:   121
     total cpu time spent up to now is        2.0 secs

     Computing kpt #:   122
     total cpu time spent up to now is        2.0 secs

     Computing kpt #:   123
     total cpu time spent up to now is        2.0 secs

     Computing kpt #:   124
     total cpu time spent up to now is        2.0 secs

     Computing kpt #:   125
     total cpu time spent up to now is        2.0 secs

     Computing kpt #:   126
     total cpu time spent up to now is        2.0 secs

     Computing kpt #:   127
     total cpu time spent up to now is        2.0 secs

     Computing kpt #:   128
     total cpu time spent up to now is        2.0 secs

     Computing kpt #:   129
     total cpu time spent up to now is        2.0 secs

     Computing kpt #:   130
     total cpu time spent up to now is        2.1 secs

     Computing kpt #:   131
     total cpu time spent up to now is        2.1 secs

     Computing kpt #:   132
     total cpu time spent up to now is        2.1 secs

     Computing kpt #:   133
     total cpu time spent up to now is        2.1 secs

     Computing kpt #:   134
     total cpu time spent up to now is        2.1 secs

     Computing kpt #:   135
     total cpu time spent up to now is        2.1 secs

     Computing kpt #:   136
     total cpu time spent up to now is        2.1 secs

     Computing kpt #:   137
     total cpu time spent up to now is        2.1 secs

     Computing kpt #:   138
     total cpu time spent up to now is        2.1 secs

     Computing kpt #:   139
     total cpu time spent up to now is        2.2 secs

     Computing kpt #:   140
     total cpu time spent up to now is        2.2 secs

     Computing kpt #:   141
     total cpu time spent up to now is        2.2 secs

     Computing kpt #:   142
     total cpu time spent up to now is        2.2 secs

     Computing kpt #:   143
     total cpu time spent up to now is        2.2 secs

     Computing kpt #:   144
     total cpu time spent up to now is        2.2 secs

     Computing kpt #:   145
     total cpu time spent up to now is        2.2 secs

     Computing kpt #:   146
     total cpu time spent up to now is        2.2 secs

     Computing kpt #:   147
     total cpu time spent up to now is        2.2 secs

     Computing kpt #:   148
     total cpu time spent up to now is        2.2 secs

     Computing kpt #:   149
     total cpu time spent up to now is        2.3 secs

     Computing kpt #:   150
     total cpu time spent up to now is        2.3 secs

     Computing kpt #:   151
     total cpu time spent up to now is        2.3 secs

     Computing kpt #:   152
     total cpu time spent up to now is        2.3 secs

     Computing kpt #:   153
     total cpu time spent up to now is        2.3 secs

     Computing kpt #:   154
     total cpu time spent up to now is        2.3 secs

     Computing kpt #:   155
     total cpu time spent up to now is        2.3 secs

     Computing kpt #:   156
     total cpu time spent up to now is        2.3 secs

     Computing kpt #:   157
     total cpu time spent up to now is        2.3 secs

     Computing kpt #:   158
     total cpu time spent up to now is        2.3 secs

     Computing kpt #:   159
     total cpu time spent up to now is        2.4 secs

     Computing kpt #:   160
     total cpu time spent up to now is        2.4 secs

     Computing kpt #:   161
     total cpu time spent up to now is        2.4 secs

     Computing kpt #:   162
     total cpu time spent up to now is        2.4 secs

     Computing kpt #:   163
     total cpu time spent up to now is        2.4 secs

     Computing kpt #:   164
     total cpu time spent up to now is        2.4 secs

     Computing kpt #:   165
     total cpu time spent up to now is        2.4 secs

     Computing kpt #:   166
     total cpu time spent up to now is        2.4 secs

     Computing kpt #:   167
     total cpu time spent up to now is        2.5 secs

     Computing kpt #:   168
     total cpu time spent up to now is        2.5 secs

     Computing kpt #:   169
     total cpu time spent up to now is        2.5 secs

     Computing kpt #:   170
     total cpu time spent up to now is        2.5 secs

     Computing kpt #:   171
     total cpu time spent up to now is        2.5 secs

     Computing kpt #:   172
     total cpu time spent up to now is        2.5 secs

     Computing kpt #:   173
     total cpu time spent up to now is        2.5 secs

     Computing kpt #:   174
     total cpu time spent up to now is        2.5 secs

     Computing kpt #:   175
     total cpu time spent up to now is        2.5 secs

     Computing kpt #:   176
     total cpu time spent up to now is        2.5 secs

     Computing kpt #:   177
     total cpu time spent up to now is        2.6 secs

     Computing kpt #:   178
     total cpu time spent up to now is        2.6 secs

     Computing kpt #:   179
     total cpu time spent up to now is        2.6 secs

     Computing kpt #:   180
     total cpu time spent up to now is        2.6 secs

     Computing kpt #:   181
     total cpu time spent up to now is        2.6 secs

     Computing kpt #:   182
     total cpu time spent up to now is        2.6 secs

     Computing kpt #:   183
     total cpu time spent up to now is        2.6 secs

     Computing kpt #:   184
     total cpu time spent up to now is        2.6 secs

     Computing kpt #:   185
     total cpu time spent up to now is        2.6 secs

     Computing kpt #:   186
     total cpu time spent up to now is        2.6 secs

     Computing kpt #:   187
     total cpu time spent up to now is        2.6 secs

     Computing kpt #:   188
     total cpu time spent up to now is        2.7 secs

     Computing kpt #:   189
     total cpu time spent up to now is        2.7 secs

     Computing kpt #:   190
     total cpu time spent up to now is        2.7 secs

     Computing kpt #:   191
     total cpu time spent up to now is        2.7 secs

     Computing kpt #:   192
     total cpu time spent up to now is        2.7 secs

     Computing kpt #:   193
     total cpu time spent up to now is        2.7 secs

     Computing kpt #:   194
     total cpu time spent up to now is        2.7 secs

     Computing kpt #:   195
     total cpu time spent up to now is        2.7 secs

     Computing kpt #:   196
     total cpu time spent up to now is        2.7 secs

     Computing kpt #:   197
     total cpu time spent up to now is        2.7 secs

     Computing kpt #:   198
     total cpu time spent up to now is        2.8 secs

     Computing kpt #:   199
     total cpu time spent up to now is        2.8 secs

     Computing kpt #:   200
     total cpu time spent up to now is        2.8 secs

     Computing kpt #:   201
     total cpu time spent up to now is        2.8 secs

     Computing kpt #:   202
     total cpu time spent up to now is        2.8 secs

     Computing kpt #:   203
     total cpu time spent up to now is        2.8 secs

     Computing kpt #:   204
     total cpu time spent up to now is        2.8 secs

     Computing kpt #:   205
     total cpu time spent up to now is        2.8 secs

     Computing kpt #:   206
     total cpu time spent up to now is        2.8 secs

     Computing kpt #:   207
     total cpu time spent up to now is        2.8 secs

     Computing kpt #:   208
     total cpu time spent up to now is        2.9 secs

     Computing kpt #:   209
     total cpu time spent up to now is        2.9 secs

     Computing kpt #:   210
     total cpu time spent up to now is        2.9 secs

     Computing kpt #:   211
     total cpu time spent up to now is        2.9 secs

     Computing kpt #:   212
     total cpu time spent up to now is        2.9 secs

     Computing kpt #:   213
     total cpu time spent up to now is        2.9 secs

     Computing kpt #:   214
     total cpu time spent up to now is        2.9 secs

     Computing kpt #:   215
     total cpu time spent up to now is        2.9 secs

     Computing kpt #:   216
     total cpu time spent up to now is        2.9 secs

     Computing kpt #:   217
     total cpu time spent up to now is        2.9 secs

     Computing kpt #:   218
     total cpu time spent up to now is        3.0 secs

     Computing kpt #:   219
     total cpu time spent up to now is        3.0 secs

     Computing kpt #:   220
     total cpu time spent up to now is        3.0 secs

     ethr =  1.00E-12,  avg # of iterations = 18.6

     total cpu time spent up to now is        3.0 secs

     End of band structure calculation

 ------ SPIN UP ------------


          k =-0.0500 0.0500 0.0500 (   265 PWs)   bands (ev):

     4.4796  11.5510  11.6014  11.6014  12.6580  12.6580  37.0048  39.5839
    40.6881

     occupation numbers 
     1.0000   1.0000   1.0000   1.0000   1.0000   1.0000   0.0000   0.0000
     0.0000

          k =-0.1500 0.1500-0.0500 (   269 PWs)   bands (ev):

     4.9889  11.4073  11.7055  11.7159  12.5552  12.6897  34.6155  36.9361
    39.6619

     occupation numbers 
     1.0000   1.0000   1.0000   1.0000   1.0000   1.0000   0.0000   0.0000
     0.0000

          k =-0.2500 0.2500-0.1500 (   268 PWs)   bands (ev):

     6.1865  11.1850  11.7886  11.8275  12.5578  12.8267  29.5480  35.8403
    39.0526

     occupation numbers 
     1.0000   1.0000   1.0000   1.0000   1.0000   1.0000   0.0000   0.0000
     0.0000

          k =-0.3500 0.3500-0.2500 (   261 PWs)   bands (ev):

     7.7517  11.2150  11.6777  11.7296  12.8789  13.1812  24.7563  35.2291
    37.9273

     occupation numbers 
     1.0000   1.0000   1.0000   1.0000   1.0000   1.0587   0.0000   0.0000
     0.0000

          k =-0.4500 0.4500-0.3500 (   260 PWs)   bands (ev):

     8.7989  11.5268  11.5952  12.0567  13.2508  13.6304  20.8270  35.0376
    37.1532

     occupation numbers 
     1.0000   1.0000   1.0000   1.0000   1.0798   0.0041   0.0000   0.0000
     0.0000

          k = 0.4500-0.4500 0.5500 (   262 PWs)   bands (ev):

     8.9870  11.4731  11.5622  12.5563  13.4196  13.9392  19.3846  35.2120
    37.1328

     occupation numbers 
     1.0000   1.0000   1.0000   1.0000   0.4422   0.0000   0.0000   0.0000
     0.0000

          k = 0.3500-0.3500 0.4500 (   263 PWs)   bands (ev):

     8.5646  11.5404  11.6478  11.6899  13.2995  13.3255  21.9868  35.6946
    36.6084

     occupation numbers 
     1.0000   1.0000   1.0000   1.0000   1.0076   0.9228   0.0000   0.0000
     0.0000

          k = 0.2500-0.2500 0.3500 (   263 PWs)   bands (ev):

     7.2304  11.1329  11.7250  11.7829  12.8141  12.9911  26.2861  36.4356
    36.8005

     occupation numbers 
     1.0000   1.0000   1.0000   1.0000   1.0000   1.0006   0.0000   0.0000
     0.0000

          k = 0.1500-0.1500 0.2500 (   271 PWs)   bands (ev):

     5.7222  11.2447  11.7970  11.8071  12.5290  12.7464  31.2473  37.2412
    37.5959

     occupation numbers 
     1.0000   1.0000   1.0000   1.0000   1.0000   1.0000   0.0000   0.0000
     0.0000

          k = 0.0500-0.0500 0.1500 (   267 PWs)   bands (ev):

     4.7361  11.4616  11.6677  11.6711  12.5728  12.6954  36.0757  38.3038
    38.9444

     occupation numbers 
     1.0000   1.0000   1.0000   1.0000   1.0000   1.0000   0.0000   0.0000
     0.0000

          k =-0.0500 0.2500 0.0500 (   267 PWs)   bands (ev):

     5.2390  11.2836  11.8048  11.8084  12.4209  12.7669  34.8011  37.0109
    37.0334

     occupation numbers 
     1.0000   1.0000   1.0000   1.0000   1.0000   1.0000   0.0000   0.0000
     0.0000

          k =-0.1500 0.3500-0.0500 (   267 PWs)   bands (ev):

     6.1958  11.0432  11.8550  12.0066  12.3739  12.9079  31.5995  33.7861
    37.5825

     occupation numbers 
     1.0000   1.0000   1.0000   1.0000   1.0000   1.0000   0.0000   0.0000
     0.0000

          k =-0.2500 0.4500-0.1500 (   264 PWs)   bands (ev):

     7.6498  10.8870  11.6157  12.0023  12.8022  13.2751  26.6479  32.9876
    36.0430

     occupation numbers 
     1.0000   1.0000   1.0000   1.0000   1.0000   1.0571   0.0000   0.0000
     0.0000

          k =-0.3500 0.5500-0.2500 (   261 PWs)   bands (ev):

     8.9219  11.0974  11.4571  11.8711  13.2770  14.0529  22.2894  32.7657
    34.3596

     occupation numbers 
     1.0000   1.0000   1.0000   1.0000   1.0542   0.0000   0.0000   0.0000
     0.0000

          k = 0.5500-0.3500 0.6500 (   256 PWs)   bands (ev):

     9.3150  11.1652  11.7736  11.8252  13.3929  15.2625  19.4904  32.3843
    33.9070

     occupation numbers 
     1.0000   1.0000   1.0000   1.0000   0.5865   0.0000   0.0000   0.0000
     0.0000

          k = 0.4500-0.2500 0.5500 (   257 PWs)   bands (ev):

     9.1503  11.2335  11.5471  11.8094  13.1944  14.5705  21.0897  31.6976
    35.0805

     occupation numbers 
     1.0000   1.0000   1.0000   1.0000   1.0675   0.0000   0.0000   0.0000
     0.0000

          k = 0.3500-0.1500 0.4500 (   260 PWs)   bands (ev):

     8.1600  10.9753  11.5227  11.9387  12.7556  13.6373  25.1213  31.5939
    36.9259

     occupation numbers 
     1.0000   1.0000   1.0000   1.0000   1.0000   0.0033   0.0000   0.0000
     0.0000

          k = 0.2500-0.0500 0.3500 (   266 PWs)   bands (ev):

     6.6471  11.0258  11.7545  12.0333  12.3701  13.0777  29.9085  32.1502
    39.1168

     occupation numbers 
     1.0000   1.0000   1.0000   1.0000   1.0000   1.0081   0.0000   0.0000
     0.0000

          k = 0.1500 0.0500 0.2500 (   269 PWs)   bands (ev):

     5.4839  11.2605  11.7974  11.8232  12.4474  12.7724  33.0686  35.3258
    38.9393

     occupation numbers 
     1.0000   1.0000   1.0000   1.0000   1.0000   1.0000   0.0000   0.0000
     0.0000

          k =-0.0500 0.4500 0.0500 (   264 PWs)   bands (ev):

     6.8572  10.7649  11.9491  12.2617  12.3876  12.9835  32.0374  33.4602
    34.6281

     occupation numbers 
     1.0000   1.0000   1.0000   1.0000   1.0000   1.0004   0.0000   0.0000
     0.0000

          k =-0.1500 0.5500-0.0500 (   261 PWs)   bands (ev):

     8.0005  10.5223  11.7024  12.4958  12.8194  13.2893  29.0010  30.9831
    32.7794

     occupation numbers 
     1.0000   1.0000   1.0000   1.0000   1.0000   1.0318   0.0000   0.0000
     0.0000

          k =-0.2500 0.6500-0.1500 (   255 PWs)   bands (ev):

     9.1712  10.4580  11.4377  12.3964  13.3331  14.3617  24.4220  30.1385
    30.9818

     occupation numbers 
     1.0000   1.0000   1.0000   1.0000   0.8920   0.0000   0.0000   0.0000
     0.0000

          k = 0.6500-0.2500 0.7500 (   257 PWs)   bands (ev):

     9.7866  10.5457  11.3998  12.2523  13.4146  16.4263  20.6103  28.5016
    31.3326

     occupation numbers 
     1.0000   1.0000   1.0000   1.0000   0.4681   0.0000   0.0000   0.0000
     0.0000

          k = 0.5500-0.1500 0.6500 (   257 PWs)   bands (ev):

     9.8901  10.7027  11.2700  12.1824  13.1767  16.5693  20.6311  27.3559
    32.6445

     occupation numbers 
     1.0000   1.0000   1.0000   1.0000   1.0555   0.0000   0.0000   0.0000
     0.0000

          k = 0.4500-0.0500 0.5500 (   259 PWs)   bands (ev):

     9.3472  10.8369  11.1103  12.2288  12.7427  14.8096  24.4339  26.9734
    34.5929

     occupation numbers 
     1.0000   1.0000   1.0000   1.0000   1.0000   0.0000   0.0000   0.0000
     0.0000

          k = 0.3500 0.0500 0.4500 (   265 PWs)   bands (ev):

     8.0536  10.8567  11.4933  12.1693  12.4696  13.7159  27.0112  29.3261
    36.9406

     occupation numbers 
     1.0000   1.0000   1.0000   1.0000   1.0000   0.0002   0.0000   0.0000
     0.0000

          k = 0.2500 0.1500 0.3500 (   266 PWs)   bands (ev):

     6.8480  11.0623  11.7486  11.8870  12.5933  13.0266  28.0131  34.3678
    37.9777

     occupation numbers 
     1.0000   1.0000   1.0000   1.0000   1.0000   1.0019   0.0000   0.0000
     0.0000

          k =-0.0500 0.6500 0.0500 (   257 PWs)   bands (ev):

     8.5892  10.2166  12.1956  12.8496  13.1162  13.2359  29.3015  29.8035
    30.5602

     occupation numbers 
     1.0000   1.0000   1.0000   1.0000   1.0200   1.0833   0.0000   0.0000
     0.0000

          k =-0.1500 0.7500-0.0500 (   257 PWs)   bands (ev):

     9.1582  10.0675  12.2195  13.0310  13.3416  14.4325  26.8053  27.2909
    29.0013

     occupation numbers 
     1.0000   1.0000   1.0000   1.0021   0.8548   0.0000   0.0000   0.0000
     0.0000

          k = 0.7500-0.1500 0.8500 (   258 PWs)   bands (ev):

     9.6331  10.1226  11.8792  12.8314  13.4731  16.8535  22.9542  25.1768
    29.2796

     occupation numbers 
     1.0000   1.0000   1.0000   1.0000   0.2055   0.0000   0.0000   0.0000
     0.0000

          k = 0.6500-0.0500 0.7500 (   259 PWs)   bands (ev):

    10.0995  10.2591  11.4198  12.6183  13.2842  19.1824  20.1742  24.0719
    30.5055

     occupation numbers 
     1.0000   1.0000   1.0000   1.0000   1.0419   0.0000   0.0000   0.0000
     0.0000

          k = 0.5500 0.0500 0.6500 (   259 PWs)   bands (ev):

    10.0938  10.6204  11.0388  12.3648  13.0316  16.6564  22.1359  25.2091
    32.4214

     occupation numbers 
     1.0000   1.0000   1.0000   1.0000   1.0022   0.0000   0.0000   0.0000
     0.0000

          k = 0.4500 0.1500 0.5500 (   260 PWs)   bands (ev):

     9.2668  11.0063  11.2422  12.0179  12.9659  14.7384  22.6367  29.2295
    34.7507

     occupation numbers 
     1.0000   1.0000   1.0000   1.0000   1.0002   0.0000   0.0000   0.0000
     0.0000

          k = 0.3500 0.2500 0.4500 (   264 PWs)   bands (ev):

     8.3437  11.2401  11.5602  11.7603  13.0416  13.4891  23.4260  33.9644
    36.7522

     occupation numbers 
     1.0000   1.0000   1.0000   1.0000   1.0030   0.1548   0.0000   0.0000
     0.0000

          k =-0.0500 0.8500 0.0500 (   253 PWs)   bands (ev):

     9.1190   9.8401  13.2123  13.2854  13.4887  14.8446  24.5314  27.9073
    28.7221

     occupation numbers 
     1.0000   1.0000   1.0775   1.0396   0.1558   0.0000   0.0000   0.0000
     0.0000

          k = 0.8500-0.0500 0.9500 (   256 PWs)   bands (ev):

     9.2686   9.8425  12.8628  13.2475  13.5764  16.6100  23.0360  26.1089
    27.9367

     occupation numbers 
     1.0000   1.0000   1.0000   1.0812   0.0210   0.0000   0.0000   0.0000
     0.0000

          k = 0.7500 0.0500 0.8500 (   256 PWs)   bands (ev):

     9.6288  10.0579  12.0592  12.9511  13.4726  18.1326  22.4743  23.5447
    28.9566

     occupation numbers 
     1.0000   1.0000   1.0000   1.0001   0.2071   0.0000   0.0000   0.0000
     0.0000

          k = 0.6500 0.1500 0.7500 (   257 PWs)   bands (ev):

    10.0189  10.3400  11.4060  12.4646  13.3581  17.9956  20.1338  26.0121
    30.7793

     occupation numbers 
     1.0000   1.0000   1.0000   1.0000   0.7749   0.0000   0.0000   0.0000
     0.0000

          k = 0.5500 0.2500 0.6500 (   255 PWs)   bands (ev):

     9.6042  10.9085  11.5487  11.9642  13.3197  16.1534  19.6257  29.8683
    33.1026

     occupation numbers 
     1.0000   1.0000   1.0000   1.0000   0.9444   0.0000   0.0000   0.0000
     0.0000

          k = 0.4500 0.3500 0.5500 (   258 PWs)   bands (ev):

     9.0463  11.3896  11.6472  12.0532  13.3617  14.2765  19.9697  34.0371
    35.7089

     occupation numbers 
     1.0000   1.0000   1.0000   1.0000   0.7563   0.0000   0.0000   0.0000
     0.0000

          k =-0.0500-0.9500 0.0500 (   254 PWs)   bands (ev):

     9.1329   9.7586  13.3556  13.4027  13.5836  15.8646  22.9633  27.5350
    28.3269

     occupation numbers 
     1.0000   1.0000   0.7874   0.5329   0.0172   0.0000   0.0000   0.0000
     0.0000

          k =-0.1500-0.8500-0.0500 (   255 PWs)   bands (ev):

     9.2627   9.9194  12.6251  13.1959  13.4836  15.5667  24.6494  26.4561
    28.2971

     occupation numbers 
     1.0000   1.0000   1.0000   1.0684   0.1710   0.0000   0.0000   0.0000
     0.0000

          k =-0.2500-0.7500-0.1500 (   256 PWs)   bands (ev):

     9.5388  10.2598  11.6128  12.6294  13.4386  15.4640  23.5845  27.5846
    29.9181

     occupation numbers 
     1.0000   1.0000   1.0000   1.0000   0.3472   0.0000   0.0000   0.0000
     0.0000

          k =-0.3500-0.6500-0.2500 (   258 PWs)   bands (ev):

     9.4154  10.8226  11.4153  12.0428  13.3992  15.0566  21.3465  31.0827
    32.2604

     occupation numbers 
     1.0000   1.0000   1.0000   1.0000   0.5522   0.0000   0.0000   0.0000
     0.0000

          k =-0.0500-0.7500 0.0500 (   253 PWs)   bands (ev):

     8.9998   9.9970  12.7781  13.1139  13.3599  13.7565  26.8476  28.6247
    29.4829

     occupation numbers 
     1.0000   1.0000   1.0000   1.0191   0.7657   0.0000   0.0000   0.0000
     0.0000

          k =-0.1500-0.6500-0.0500 (   258 PWs)   bands (ev):

     8.7645  10.2746  11.8312  12.7757  13.1375  13.6669  27.9065  29.5334
    30.2104

     occupation numbers 
     1.0000   1.0000   1.0000   1.0000   1.0304   0.0012   0.0000   0.0000
     0.0000

          k =-0.2500-0.5500-0.1500 (   260 PWs)   bands (ev):

     8.4843  10.6784  11.4655  12.1772  13.1143  13.6493  25.4488  31.6986
    33.3781

     occupation numbers 
     1.0000   1.0000   1.0000   1.0000   1.0192   0.0022   0.0000   0.0000
     0.0000

          k =-0.0500-0.5500 0.0500 (   260 PWs)   bands (ev):

     7.8063  10.4805  11.9219  12.5511  12.7054  13.1098  30.7014  31.9026
    32.3187

     occupation numbers 
     1.0000   1.0000   1.0000   1.0000   1.0000   1.0175   0.0000   0.0000
     0.0000

          k =-0.1500-0.4500-0.0500 (   265 PWs)   bands (ev):

     7.0721  10.7874  11.7809  12.2337  12.5140  13.0764  30.2386  32.3350
    35.5334

     occupation numbers 
     1.0000   1.0000   1.0000   1.0000   1.0000   1.0079   0.0000   0.0000
     0.0000

          k =-0.0500-0.3500 0.0500 (   267 PWs)   bands (ev):

     5.9635  11.0423  11.9683  12.0085  12.2713  12.8658  33.4256  35.1833
    35.8722

     occupation numbers 
     1.0000   1.0000   1.0000   1.0000   1.0000   1.0000   0.0000   0.0000
     0.0000

          k =-0.1500 0.1500 0.1500 (   271 PWs)   bands (ev):

     5.2370  11.3645  11.7369  11.7369  12.6234  12.6234  32.9030  38.1099
    39.5308

     occupation numbers 
     1.0000   1.0000   1.0000   1.0000   1.0000   1.0000   0.0000   0.0000
     0.0000

          k =-0.2500 0.2500 0.0500 (   269 PWs)   bands (ev):

     5.9622  11.1790  11.7920  11.8940  12.4070  12.8766  31.4191  33.6685
    40.3480

     occupation numbers 
     1.0000   1.0000   1.0000   1.0000   1.0000   1.0000   0.0000   0.0000
     0.0000

          k =-0.3500 0.3500-0.0500 (   264 PWs)   bands (ev):

     7.2862  10.9656  11.6587  12.0873  12.3443  13.3575  28.3782  30.6545
    39.5818

     occupation numbers 
     1.0000   1.0000   1.0000   1.0000   1.0000   0.7778   0.0000   0.0000
     0.0000

          k =-0.4500 0.4500-0.1500 (   258 PWs)   bands (ev):

     8.7278  11.0481  11.3986  11.9222  12.7999  14.0951  23.7861  30.3241
    37.6026

     occupation numbers 
     1.0000   1.0000   1.0000   1.0000   1.0000   0.0000   0.0000   0.0000
     0.0000

          k = 0.4500-0.4500 0.7500 (   256 PWs)   bands (ev):

     9.3729  11.1318  11.6320  11.8341  13.2305  15.2757  20.1711  30.6981
    35.5948

     occupation numbers 
     1.0000   1.0000   1.0000   1.0000   1.0830   0.0000   0.0000   0.0000
     0.0000

          k = 0.3500-0.3500 0.6500 (   259 PWs)   bands (ev):

     9.3543  11.0374  11.6304  11.8684  13.4385  15.1686  20.1491  31.7476
    34.1786

     occupation numbers 
     1.0000   1.0000   1.0000   1.0000   0.3477   0.0000   0.0000   0.0000
     0.0000

          k = 0.2500-0.2500 0.5500 (   261 PWs)   bands (ev):

     8.6880  10.8486  11.4594  11.9892  13.3502  13.6889  23.7491  33.2991
    33.6709

     occupation numbers 
     1.0000   1.0000   1.0000   1.0000   0.8141   0.0005   0.0000   0.0000
     0.0000

          k = 0.1500-0.1500 0.4500 (   265 PWs)   bands (ev):

     7.2717  10.8210  11.7136  12.0894  12.7505  13.0756  28.3642  34.0348
    34.8483

     occupation numbers 
     1.0000   1.0000   1.0000   1.0000   1.0000   1.0077   0.0000   0.0000
     0.0000

          k =-0.1500 0.3500 0.1500 (   265 PWs)   bands (ev):

     6.4183  11.0542  11.8171  11.9238  12.5262  12.9044  29.7321  35.7479
    36.1505

     occupation numbers 
     1.0000   1.0000   1.0000   1.0000   1.0000   1.0000   0.0000   0.0000
     0.0000

          k =-0.2500 0.4500 0.0500 (   264 PWs)   bands (ev):

     7.4843  10.8237  11.6209  12.2156  12.4985  13.3406  28.5465  30.7809
    36.2694

     occupation numbers 
     1.0000   1.0000   1.0000   1.0000   1.0000   0.8592   0.0000   0.0000
     0.0000

          k =-0.3500 0.5500-0.0500 (   261 PWs)   bands (ev):

     8.8437  10.7139  11.2729  12.3364  12.7133  14.2032  25.8100  28.1813
    33.8351

     occupation numbers 
     1.0000   1.0000   1.0000   1.0000   1.0000   0.0000   0.0000   0.0000
     0.0000

          k = 0.5500-0.3500 0.8500 (   259 PWs)   bands (ev):

     9.7184  10.7699  11.1746  12.1925  13.1617  15.7047  21.6752  28.3316
    31.7968

     occupation numbers 
     1.0000   1.0000   1.0000   1.0000   1.0453   0.0000   0.0000   0.0000
     0.0000

          k = 0.4500-0.2500 0.7500 (   255 PWs)   bands (ev):

     9.8472  10.6612  11.3675  12.1585  13.3517  16.8578  19.7801  29.1759
    30.4493

     occupation numbers 
     1.0000   1.0000   1.0000   1.0000   0.8068   0.0000   0.0000   0.0000
     0.0000

          k = 0.3500-0.1500 0.6500 (   258 PWs)   bands (ev):

     9.4670  10.6385  11.2371  12.2861  13.2288  14.9816  22.9427  29.4340
    31.0963

     occupation numbers 
     1.0000   1.0000   1.0000   1.0000   1.0828   0.0000   0.0000   0.0000
     0.0000

          k = 0.2500-0.0500 0.5500 (   264 PWs)   bands (ev):

     8.3646  10.6028  11.4647  12.4406  12.7641  13.6974  27.3374  29.5603
    33.2413

     occupation numbers 
     1.0000   1.0000   1.0000   1.0000   1.0000   0.0004   0.0000   0.0000
     0.0000

          k =-0.1500 0.5500 0.1500 (   258 PWs)   bands (ev):

     8.1718  10.5724  11.6062  12.2984  13.1905  13.2396  27.1489  32.5133
    32.6661

     occupation numbers 
     1.0000   1.0000   1.0000   1.0000   1.0649   1.0831   0.0000   0.0000
     0.0000

          k =-0.2500 0.6500 0.0500 (   258 PWs)   bands (ev):

     9.0862  10.3898  11.4459  12.6937  13.0479  14.2745  26.2949  28.4929
    30.3249

     occupation numbers 
     1.0000   1.0000   1.0000   1.0000   1.0036   0.0000   0.0000   0.0000
     0.0000

          k = 0.6500-0.2500 0.9500 (   254 PWs)   bands (ev):

     9.8050  10.4146  11.1893  12.7192  13.2437  16.0664  23.9429  26.4532
    28.0855

     occupation numbers 
     1.0000   1.0000   1.0000   1.0000   1.0823   0.0000   0.0000   0.0000
     0.0000

          k = 0.5500-0.1500 0.8500 (   259 PWs)   bands (ev):

    10.1981  10.4125  11.0921  12.5135  13.3975  18.5982  20.4247  26.2523
    27.3605

     occupation numbers 
     1.0000   1.0000   1.0000   1.0000   0.5615   0.0000   0.0000   0.0000
     0.0000

          k = 0.4500-0.0500 0.7500 (   258 PWs)   bands (ev):

    10.1281  10.6058  10.8658  12.5422  13.2333  16.9933  22.5413  25.4504
    28.7696

     occupation numbers 
     1.0000   1.0000   1.0000   1.0000   1.0833   0.0000   0.0000   0.0000
     0.0000

          k = 0.3500 0.0500 0.6500 (   257 PWs)   bands (ev):

     9.4885  10.5575  11.1243  12.5499  12.9893  14.9489  24.7806  27.2275
    30.8507

     occupation numbers 
     1.0000   1.0000   1.0000   1.0000   1.0005   0.0000   0.0000   0.0000
     0.0000

          k =-0.1500 0.7500 0.1500 (   257 PWs)   bands (ev):

     9.2961  10.1317  11.9814  12.7784  13.4711  14.8278  25.2279  27.2622
    30.1830

     occupation numbers 
     1.0000   1.0000   1.0000   1.0000   0.2124   0.0000   0.0000   0.0000
     0.0000

[...]
     0.0000

          k =-0.0500-0.7500 0.0500 (   253 PWs)   bands (ev):

     8.9998   9.9970  12.7781  13.1139  13.3599  13.7565  26.8476  28.6247
    29.4829

     occupation numbers 
     1.0000   1.0000   1.0000   1.0191   0.7657   0.0000   0.0000   0.0000
     0.0000

          k =-0.1500-0.6500-0.0500 (   258 PWs)   bands (ev):

     8.7645  10.2746  11.8312  12.7757  13.1375  13.6669  27.9065  29.5334
    30.2104

     occupation numbers 
     1.0000   1.0000   1.0000   1.0000   1.0304   0.0012   0.0000   0.0000
     0.0000

          k =-0.2500-0.5500-0.1500 (   260 PWs)   bands (ev):

     8.4843  10.6784  11.4655  12.1772  13.1143  13.6493  25.4488  31.6986
    33.3781

     occupation numbers 
     1.0000   1.0000   1.0000   1.0000   1.0192   0.0022   0.0000   0.0000
     0.0000

          k =-0.0500-0.5500 0.0500 (   260 PWs)   bands (ev):

     7.8063  10.4805  11.9219  12.5511  12.7054  13.1098  30.7014  31.9026
    32.3187

     occupation numbers 
     1.0000   1.0000   1.0000   1.0000   1.0000   1.0175   0.0000   0.0000
     0.0000

          k =-0.1500-0.4500-0.0500 (   265 PWs)   bands (ev):

     7.0721  10.7874  11.7809  12.2338  12.5140  13.0764  30.2386  32.3350
    35.5334

     occupation numbers 
     1.0000   1.0000   1.0000   1.0000   1.0000   1.0079   0.0000   0.0000
     0.0000

          k =-0.0500-0.3500 0.0500 (   267 PWs)   bands (ev):

     5.9635  11.0423  11.9683  12.0085  12.2713  12.8658  33.4256  35.1833
    35.8722

     occupation numbers 
     1.0000   1.0000   1.0000   1.0000   1.0000   1.0000   0.0000   0.0000
     0.0000

          k =-0.1500 0.1500 0.1500 (   271 PWs)   bands (ev):

     5.2370  11.3645  11.7369  11.7369  12.6234  12.6234  32.9030  38.1099
    39.5308

     occupation numbers 
     1.0000   1.0000   1.0000   1.0000   1.0000   1.0000   0.0000   0.0000
     0.0000

          k =-0.2500 0.2500 0.0500 (   269 PWs)   bands (ev):

     5.9622  11.1791  11.7920  11.8940  12.4070  12.8767  31.4191  33.6685
    40.3480

     occupation numbers 
     1.0000   1.0000   1.0000   1.0000   1.0000   1.0000   0.0000   0.0000
     0.0000

          k =-0.3500 0.3500-0.0500 (   264 PWs)   bands (ev):

     7.2862  10.9656  11.6587  12.0873  12.3443  13.3575  28.3782  30.6545
    39.5818

     occupation numbers 
     1.0000   1.0000   1.0000   1.0000   1.0000   0.7778   0.0000   0.0000
     0.0000

          k =-0.4500 0.4500-0.1500 (   258 PWs)   bands (ev):

     8.7278  11.0481  11.3986  11.9222  12.7999  14.0951  23.7861  30.3241
    37.6026

     occupation numbers 
     1.0000   1.0000   1.0000   1.0000   1.0000   0.0000   0.0000   0.0000
     0.0000

          k = 0.4500-0.4500 0.7500 (   256 PWs)   bands (ev):

     9.3729  11.1319  11.6320  11.8342  13.2305  15.2757  20.1711  30.6981
    35.5948

     occupation numbers 
     1.0000   1.0000   1.0000   1.0000   1.0830   0.0000   0.0000   0.0000
     0.0000

          k = 0.3500-0.3500 0.6500 (   259 PWs)   bands (ev):

     9.3543  11.0374  11.6304  11.8684  13.4385  15.1686  20.1491  31.7476
    34.1786

     occupation numbers 
     1.0000   1.0000   1.0000   1.0000   0.3477   0.0000   0.0000   0.0000
     0.0000

          k = 0.2500-0.2500 0.5500 (   261 PWs)   bands (ev):

     8.6880  10.8486  11.4594  11.9892  13.3502  13.6889  23.7491  33.2991
    33.6709

     occupation numbers 
     1.0000   1.0000   1.0000   1.0000   0.8141   0.0005   0.0000   0.0000
     0.0000

          k = 0.1500-0.1500 0.4500 (   265 PWs)   bands (ev):

     7.2717  10.8210  11.7136  12.0894  12.7505  13.0757  28.3642  34.0348
    34.8483

     occupation numbers 
     1.0000   1.0000   1.0000   1.0000   1.0000   1.0077   0.0000   0.0000
     0.0000

          k =-0.1500 0.3500 0.1500 (   265 PWs)   bands (ev):

     6.4183  11.0542  11.8171  11.9238  12.5262  12.9044  29.7321  35.7480
    36.1505

     occupation numbers 
     1.0000   1.0000   1.0000   1.0000   1.0000   1.0000   0.0000   0.0000
     0.0000

          k =-0.2500 0.4500 0.0500 (   264 PWs)   bands (ev):

     7.4843  10.8237  11.6209  12.2156  12.4985  13.3406  28.5465  30.7809
    36.2694

     occupation numbers 
     1.0000   1.0000   1.0000   1.0000   1.0000   0.8592   0.0000   0.0000
     0.0000

          k =-0.3500 0.5500-0.0500 (   261 PWs)   bands (ev):

     8.8437  10.7139  11.2729  12.3364  12.7133  14.2033  25.8100  28.1813
    33.8351

     occupation numbers 
     1.0000   1.0000   1.0000   1.0000   1.0000   0.0000   0.0000   0.0000
     0.0000

          k = 0.5500-0.3500 0.8500 (   259 PWs)   bands (ev):

     9.7184  10.7700  11.1746  12.1925  13.1617  15.7047  21.6752  28.3316
    31.7968

     occupation numbers 
     1.0000   1.0000   1.0000   1.0000   1.0453   0.0000   0.0000   0.0000
     0.0000

          k = 0.4500-0.2500 0.7500 (   255 PWs)   bands (ev):

     9.8473  10.6612  11.3675  12.1585  13.3517  16.8578  19.7801  29.1759
    30.4493

     occupation numbers 
     1.0000   1.0000   1.0000   1.0000   0.8068   0.0000   0.0000   0.0000
     0.0000

          k = 0.3500-0.1500 0.6500 (   258 PWs)   bands (ev):

     9.4670  10.6385  11.2371  12.2861  13.2288  14.9816  22.9427  29.4340
    31.0963

     occupation numbers 
     1.0000   1.0000   1.0000   1.0000   1.0828   0.0000   0.0000   0.0000
     0.0000

          k = 0.2500-0.0500 0.5500 (   264 PWs)   bands (ev):

     8.3646  10.6028  11.4647  12.4406  12.7641  13.6974  27.3374  29.5603
    33.2413

     occupation numbers 
     1.0000   1.0000   1.0000   1.0000   1.0000   0.0004   0.0000   0.0000
     0.0000

          k =-0.1500 0.5500 0.1500 (   258 PWs)   bands (ev):

     8.1718  10.5724  11.6063  12.2984  13.1905  13.2396  27.1489  32.5133
    32.6661

     occupation numbers 
     1.0000   1.0000   1.0000   1.0000   1.0649   1.0831   0.0000   0.0000
     0.0000

          k =-0.2500 0.6500 0.0500 (   258 PWs)   bands (ev):

     9.0862  10.3898  11.4459  12.6937  13.0479  14.2745  26.2949  28.4929
    30.3249

     occupation numbers 
     1.0000   1.0000   1.0000   1.0000   1.0036   0.0000   0.0000   0.0000
     0.0000

          k = 0.6500-0.2500 0.9500 (   254 PWs)   bands (ev):

     9.8050  10.4146  11.1893  12.7192  13.2437  16.0664  23.9429  26.4532
    28.0855

     occupation numbers 
     1.0000   1.0000   1.0000   1.0000   1.0823   0.0000   0.0000   0.0000
     0.0000

          k = 0.5500-0.1500 0.8500 (   259 PWs)   bands (ev):

    10.1981  10.4125  11.0921  12.5135  13.3975  18.5982  20.4247  26.2523
    27.3605

     occupation numbers 
     1.0000   1.0000   1.0000   1.0000   0.5614   0.0000   0.0000   0.0000
     0.0000

          k = 0.4500-0.0500 0.7500 (   258 PWs)   bands (ev):

    10.1281  10.6058  10.8658  12.5422  13.2333  16.9933  22.5413  25.4504
    28.7696

     occupation numbers 
     1.0000   1.0000   1.0000   1.0000   1.0833   0.0000   0.0000   0.0000
     0.0000

          k = 0.3500 0.0500 0.6500 (   257 PWs)   bands (ev):

     9.4885  10.5575  11.1243  12.5499  12.9893  14.9489  24.7806  27.2275
    30.8507

     occupation numbers 
     1.0000   1.0000   1.0000   1.0000   1.0005   0.0000   0.0000   0.0000
     0.0000

          k =-0.1500 0.7500 0.1500 (   257 PWs)   bands (ev):

     9.2961  10.1317  11.9814  12.7784  13.4711  14.8278  25.2279  27.2622
    30.1830

     occupation numbers 
     1.0000   1.0000   1.0000   1.0000   0.2124   0.0000   0.0000   0.0000
     0.0000

          k = 0.7500-0.1500 1.0500 (   253 PWs)   bands (ev):

     9.5223  10.0787  11.9877  13.0219  13.4631  16.4921  24.6743  25.1341
    27.2286

     occupation numbers 
     1.0000   1.0000   1.0000   1.0016   0.2421   0.0000   0.0000   0.0000
     0.0000

          k = 0.6500-0.0500 0.9500 (   259 PWs)   bands (ev):

     9.7971  10.2667  11.5891  12.7952  13.5733  18.8713  22.9069  23.6345
    25.8366

     occupation numbers 
     1.0000   1.0000   1.0000   1.0000   0.0229   0.0000   0.0000   0.0000
     0.0000

          k = 0.5500 0.0500 0.8500 (   260 PWs)   bands (ev):

    10.1226  10.5107  11.0681  12.5805  13.4461  19.6697  20.6492  24.2692
    27.0620

     occupation numbers 
     1.0000   1.0000   1.0000   1.0000   0.3127   0.0000   0.0000   0.0000
     0.0000

          k = 0.4500 0.1500 0.7500 (   254 PWs)   bands (ev):

    10.0616  10.5086  11.1307  12.3758  13.3068  17.0339  20.9168  27.6086
    29.0347

     occupation numbers 
     1.0000   1.0000   1.0000   1.0000   0.9872   0.0000   0.0000   0.0000
     0.0000

          k =-0.1500-1.0500 0.1500 (   258 PWs)   bands (ev):

     9.3971   9.9150  12.5569  13.1311  13.5145  17.1979  23.0651  24.4048
    29.0946

     occupation numbers 
     1.0000   1.0000   1.0000   1.0270   0.0937   0.0000   0.0000   0.0000
     0.0000

          k =-0.2500-0.9500 0.0500 (   257 PWs)   bands (ev):

     9.5117  10.0115  12.2057  13.0429  13.5741  17.6676  23.1795  24.5862
    26.9063

     occupation numbers 
     1.0000   1.0000   1.0000   1.0031   0.0224   0.0000   0.0000   0.0000
     0.0000

          k =-0.3500-0.8500-0.0500 (   255 PWs)   bands (ev):

     9.8351  10.3158  11.4140  12.7910  13.4514  17.5011  23.3278  25.3181
    26.2056

     occupation numbers 
     1.0000   1.0000   1.0000   1.0000   0.2894   0.0000   0.0000   0.0000
     0.0000

          k =-0.1500-0.8500 0.1500 (   256 PWs)   bands (ev):

     9.3950   9.9882  12.3428  12.9927  13.5135  16.0750  24.4434  25.0349
    29.4647

     occupation numbers 
     1.0000   1.0000   1.0000   1.0006   0.0958   0.0000   0.0000   0.0000
     0.0000

          k =-0.2500-0.7500 0.0500 (   256 PWs)   bands (ev):

     9.4473  10.2085  11.6665  12.9101  13.2799  15.2192  25.4396  27.2317
    28.0007

     occupation numbers 
     1.0000   1.0000   1.0000   1.0000   1.0495   0.0000   0.0000   0.0000
     0.0000

          k =-0.1500-0.6500 0.1500 (   259 PWs)   bands (ev):

     8.9124  10.3340  11.6723  12.5359  13.3767  13.8584  26.0957  29.9387
    31.2136

     occupation numbers 
     1.0000   1.0000   1.0000   1.0000   0.6760   0.0000   0.0000   0.0000
     0.0000

          k =-0.2500 0.2500 0.2500 (   268 PWs)   bands (ev):

     6.6206  11.1788  11.7778  11.7778  12.7695  12.7695  27.8261  37.3361
    38.6475

     occupation numbers 
     1.0000   1.0000   1.0000   1.0000   1.0000   1.0000   0.0000   0.0000
     0.0000

          k =-0.3500 0.3500 0.1500 (   264 PWs)   bands (ev):

     7.4499  11.0435  11.6710  11.8799  12.6128  13.2905  26.4774  32.9060
    38.8014

     occupation numbers 
     1.0000   1.0000   1.0000   1.0000   1.0000   1.0292   0.0000   0.0000
     0.0000

          k =-0.4500 0.4500 0.0500 (   262 PWs)   bands (ev):

     8.7087  10.8663  11.3397  12.1363  12.5556  14.1825  25.6423  28.0491
    37.6466

     occupation numbers 
     1.0000   1.0000   1.0000   1.0000   1.0000   0.0000   0.0000   0.0000
     0.0000

          k = 0.4500-0.4500 0.9500 (   257 PWs)   bands (ev):

     9.7769  10.8689  10.9840  12.2381  12.8534  15.5941  23.2068  25.9809
    34.9052

     occupation numbers 
     1.0000   1.0000   1.0000   1.0000   1.0000   0.0000   0.0000   0.0000
     0.0000

          k = 0.3500-0.3500 0.8500 (   256 PWs)   bands (ev):

     9.9926  10.5193  11.3566  12.2897  13.2607  17.5231  19.9166  26.5804
    32.7868

     occupation numbers 
     1.0000   1.0000   1.0000   1.0000   1.0734   0.0000   0.0000   0.0000
     0.0000

          k = 0.2500-0.2500 0.7500 (   254 PWs)   bands (ev):

     9.6735  10.3783  11.5063  12.4028  13.4715  15.9011  21.9352  27.9568
    31.5086

     occupation numbers 
     1.0000   1.0000   1.0000   1.0000   0.2111   0.0000   0.0000   0.0000
     0.0000

          k =-0.2500 0.4500 0.2500 (   265 PWs)   bands (ev):

     7.9536  11.0268  11.5962  11.8538  13.0974  13.1924  24.9281  35.1256
    35.2490

     occupation numbers 
     1.0000   1.0000   1.0000   1.0000   1.0132   1.0662   0.0000   0.0000
     0.0000

          k =-0.3500 0.5500 0.1500 (   260 PWs)   bands (ev):

     8.8760  10.8416  11.3375  12.0844  13.0056  14.1457  23.9427  30.4384
    33.9951

     occupation numbers 
     1.0000   1.0000   1.0000   1.0000   1.0009   0.0000   0.0000   0.0000
     0.0000

          k = 0.5500-0.3500 1.0500 (   259 PWs)   bands (ev):

     9.8612  10.7335  10.9101  12.4010  12.9847  15.7207  23.3924  26.1079
    31.5883

     occupation numbers 
     1.0000   1.0000   1.0000   1.0000   1.0004   0.0000   0.0000   0.0000
     0.0000

          k = 0.4500-0.2500 0.9500 (   259 PWs)   bands (ev):

    10.2905  10.3858  11.0684  12.5001  13.2449  18.0415  21.2528  24.6494
    29.6469

     occupation numbers 
     1.0000   1.0000   1.0000   1.0000   1.0820   0.0000   0.0000   0.0000
     0.0000

          k = 0.3500-0.1500 0.8500 (   257 PWs)   bands (ev):

     9.9267  10.2970  11.4191  12.6566  13.4242  17.7461  21.5342  25.6343
    28.3292

     occupation numbers 
     1.0000   1.0000   1.0000   1.0000   0.4179   0.0000   0.0000   0.0000
     0.0000

          k =-0.2500 0.6500 0.2500 (   257 PWs)   bands (ev):

     9.2975  10.6121  11.4179  12.1788  13.4466  14.6226  22.7471  30.6508
    32.4540

     occupation numbers 
     1.0000   1.0000   1.0000   1.0000   0.3103   0.0000   0.0000   0.0000
     0.0000

          k = 0.6500-0.2500 1.1500 (   256 PWs)   bands (ev):

     9.8217  10.4269  11.2798  12.4952  13.3602  16.2137  22.1346  28.0158
    28.9766

     occupation numbers 
     1.0000   1.0000   1.0000   1.0000   0.7639   0.0000   0.0000   0.0000
     0.0000

          k = 0.5500-0.1500 1.0500 (   260 PWs)   bands (ev):

    10.0875  10.6087  10.9498  12.6029  13.4463  18.5724  21.9194  24.9481
    26.2587

     occupation numbers 
     1.0000   1.0000   1.0000   1.0000   0.3121   0.0000   0.0000   0.0000
     0.0000

          k = 0.4500-0.0500 0.9500 (   258 PWs)   bands (ev):

    10.0072  10.6093  11.0561  12.6098  13.5731  20.1610  21.5601  23.9186
    25.0261

     occupation numbers 
     1.0000   1.0000   1.0000   1.0000   0.0230   0.0000   0.0000   0.0000
     0.0000

          k =-0.2500-1.1500 0.2500 (   255 PWs)   bands (ev):

     9.8199  10.2149  11.6630  12.6288  13.4297  17.4404  21.3243  25.4983
    30.8610

     occupation numbers 
     1.0000   1.0000   1.0000   1.0000   0.3905   0.0000   0.0000   0.0000
     0.0000

          k =-0.3500-1.0500 0.1500 (   260 PWs)   bands (ev):

     9.9100  10.2587  11.5350  12.7358  13.4530  19.2384  21.1176  23.7810
    28.0480

     occupation numbers 
     1.0000   1.0000   1.0000   1.0000   0.2828   0.0000   0.0000   0.0000
     0.0000

          k =-0.2500-0.9500 0.2500 (   259 PWs)   bands (ev):

     9.8383  10.1490  11.7768  12.7956  13.3609  18.9127  20.8788  23.6937
    30.5316

     occupation numbers 
     1.0000   1.0000   1.0000   1.0000   0.7605   0.0000   0.0000   0.0000
     0.0000

          k =-0.3500 0.3500 0.3500 (   256 PWs)   bands (ev):

     8.1428  11.4708  11.6500  11.6500  13.1157  13.1157  23.2584  36.4166
    38.1715

     occupation numbers 
     1.0000   1.0000   1.0000   1.0000   1.0198   1.0198   0.0000   0.0000
     0.0000

          k =-0.4500 0.4500 0.2500 (   258 PWs)   bands (ev):

     8.7571  11.4058  11.5149  11.7281  13.0488  13.9116  22.1465  32.7631
    37.2924

     occupation numbers 
     1.0000   1.0000   1.0000   1.0000   1.0037   0.0000   0.0000   0.0000
     0.0000

          k = 0.4500-0.4500 1.1500 (   258 PWs)   bands (ev):

     9.6042  10.9462  11.2564  12.0461  13.0373  15.5180  21.5296  28.1916
    35.1349

     occupation numbers 
     1.0000   1.0000   1.0000   1.0000   1.0026   0.0000   0.0000   0.0000
     0.0000

          k = 0.3500-0.3500 1.0500 (   259 PWs)   bands (ev):

    10.1768  10.4000  11.2464  12.4689  13.1334  17.8238  21.0254  24.5377
    32.5055

     occupation numbers 
     1.0000   1.0000   1.0000   1.0000   1.0282   0.0000   0.0000   0.0000
     0.0000

          k =-0.3500 0.5500 0.3500 (   257 PWs)   bands (ev):

     8.9740  11.3282  11.7163  11.7231  13.4112  14.0405  20.9465  34.2014
    35.2731

     occupation numbers 
     1.0000   1.0000   1.0000   1.0000   0.4864   0.0000   0.0000   0.0000
     0.0000

          k = 0.5500-0.3500 1.2500 (   253 PWs)   bands (ev):

     9.5126  10.9480  11.4897  11.9641  13.3216  15.5958  20.2704  30.7573
    32.2999

     occupation numbers 
     1.0000   1.0000   1.0000   1.0000   0.9374   0.0000   0.0000   0.0000
     0.0000

          k = 0.4500-0.2500 1.1500 (   256 PWs)   bands (ev):

    10.1440  10.4393  11.2101  12.3581  13.3069  17.8250  20.0436  26.7282
    29.8883

     occupation numbers 
     1.0000   1.0000   1.0000   1.0000   0.9869   0.0000   0.0000   0.0000
     0.0000

          k =-0.3500-1.2500 0.3500 (   255 PWs)   bands (ev):

     9.7001  10.7461  11.5005  12.0674  13.3822  16.4866  19.6845  29.0927
    33.3476

     occupation numbers 
     1.0000   1.0000   1.0000   1.0000   0.6459   0.0000   0.0000   0.0000
     0.0000

          k =-0.4500 0.4500 0.4500 (   266 PWs)   bands (ev):

     8.8699  11.5382  11.5382  12.7011  13.3796  13.3796  19.8852  35.8268
    38.0205

     occupation numbers 
     1.0000   1.0000   1.0000   1.0000   0.6605   0.6605   0.0000   0.0000
     0.0000

          k = 0.4500-0.4500 1.3500 (   258 PWs)   bands (ev):

     9.1571  11.3297  11.6647  12.0831  13.3668  14.7352  19.4368  33.2360
    36.2739

     occupation numbers 
     1.0000   1.0000   1.0000   1.0000   0.7296   0.0000   0.0000   0.0000
     0.0000

     the Fermi energy is    13.4276 ev

     Writing output data file ni_2.save
 
     init_run     :      0.07s CPU      0.07s WALL (       1 calls)
     electrons    :      2.23s CPU      2.39s WALL (       1 calls)

     Called by init_run:
     wfcinit      :      0.00s CPU      0.00s WALL (       1 calls)
     wfcinit:atom :      0.00s CPU      0.00s WALL (     220 calls)
     wfcinit:wfcr :      0.09s CPU      0.10s WALL (     220 calls)
     potinit      :      0.00s CPU      0.01s WALL (       1 calls)

     Called by electrons:
     c_bands      :      2.23s CPU      2.39s WALL (       1 calls)
     v_of_rho     :      0.00s CPU      0.00s WALL (       1 calls)
     v_h          :      0.00s CPU      0.00s WALL (       1 calls)
     v_xc         :      0.00s CPU      0.00s WALL (       1 calls)
     newd         :      0.00s CPU      0.00s WALL (       1 calls)

     Called by c_bands:
     init_us_2    :      0.00s CPU      0.00s WALL (     220 calls)
     cegterg      :      2.10s CPU      2.24s WALL (     294 calls)

     Called by sum_band:

     Called by *egterg:
     h_psi        :      1.04s CPU      1.21s WALL (    4602 calls)
     s_psi        :      0.03s CPU      0.03s WALL (    4602 calls)
     g_psi        :      0.00s CPU      0.01s WALL (    4088 calls)
     cdiaghg      :      0.95s CPU      0.85s WALL (    4308 calls)
     cegterg:over :      0.09s CPU      0.08s WALL (    4088 calls)
     cegterg:upda :      0.02s CPU      0.04s WALL (    4088 calls)
     cegterg:last :      0.01s CPU      0.03s WALL (     965 calls)

     Called by h_psi:
     h_psi:pot    :      1.04s CPU      1.20s WALL (    4602 calls)
     h_psi:calbec :      0.05s CPU      0.05s WALL (    4602 calls)
     vloc_psi     :      0.95s CPU      1.10s WALL (    4602 calls)
     add_vuspsi   :      0.03s CPU      0.03s WALL (    4602 calls)

     General routines
     calbec       :      0.04s CPU      0.05s WALL (    4602 calls)
     fft          :      0.00s CPU      0.00s WALL (      21 calls)
     fftw         :      0.86s CPU      0.99s WALL (   54318 calls)
     davcio       :      0.00s CPU      0.00s WALL (     220 calls)
 
     Parallel routines
     fft_scatter  :      0.25s CPU      0.30s WALL (   54339 calls)
 
     PWSCF        :     3.01s CPU         3.40s WALL

 
   This run was terminated on:  10:21:57  25Jun2018            

=------------------------------------------------------------------------------=
   JOB DONE.
=------------------------------------------------------------------------------=
